! TOUCHSTONE file generated by CST MICROWAVE STUDIO
! Date and time: Sun Oct 12 18:24:11 2025
! Project name: calkit_sim.cst
! Parameters = {Rgap=0.9; ceq=6.5e-14; cu_t=0.035; dut_x=83.3333; k=7.07; leq=1.1e-09; line_gap=0.9; line_w=2.5; match_x=66.6667; open_x=16.6667; pad_g=1; pad_x=1.45; pad_z=0.9; ref_1=23.3333; ref_2=16.6667; res_h=0.32; res_len=1; res_w=0.5; short_x=33.3333; sus_l=100; sus_t=1.6; sus_w=40; thru_x=50; vias_r=1}
! Header version: 2015
! Port assignment regex: !\s*Touchstone port\s*([0-9]+)\s*=\s*CST MWS port\s*([0-9]+)\s*\(\"(.*)\"\)(\s*mode\s*([0-9]+))?.*
! Touchstone port assignment:
! Touchstone port 1 = CST MWS port 1 ("")
! Touchstone port 2 = CST MWS port 2 ("")
! S-Parameters are not renormalized. Unphysical impedance of 50 will be written to the file.
# GHz S DB R 50
0                        -35.318             180         -11.9702               0             -200               0             -200               0
0.0003                  -33.3338         143.315         -12.0468       0.0434924             -200               0             -200               0
0.0006                   -33.155         143.211         -12.0596       -0.023598             -200               0             -200               0
0.0009                  -32.9793         143.118         -12.0638      -0.0701253             -200               0             -200               0
0.0012                  -33.5337         143.526         -12.0643       -0.109801             -200               0             -200               0
0.0015                  -34.5379         144.302         -12.0637       -0.147546             -200               0             -200               0
0.0018                  -35.3858         145.032         -12.0635       -0.184226             -200               0             -200               0
0.0021                  -36.3187         145.901         -12.0633       -0.220194             -200               0             -200               0
0.0024                  -37.2673         146.876         -12.0631       -0.255625             -200               0             -200               0
0.0027                  -37.2802         146.995         -12.0636       -0.290628             -200               0             -200               0
0.003                   -37.2923         147.109          -12.064       -0.325257             -200               0             -200               0
0.0033                  -37.6861         147.644         -12.0641       -0.359783             -200               0             -200               0
0.0036                  -38.1014         148.232         -12.0641       -0.394149             -200               0             -200               0
0.0039                  -38.5082          148.84         -12.0642       -0.428375             -200               0             -200               0
0.0042                    -38.62         149.078         -12.0644        -0.46239             -200               0             -200               0
0.0045                  -38.7328         149.321         -12.0646       -0.496312             -200               0             -200               0
0.0048                  -38.9768          149.76         -12.0647       -0.530217             -200               0             -200               0
0.0051                  -39.2291         150.226         -12.0647       -0.564062             -200               0             -200               0
0.0054                  -39.4753         150.699         -12.0648       -0.597852             -200               0             -200               0
0.0057                  -39.5836         150.963         -12.0649       -0.631544             -200               0             -200               0
0.006                    -39.693         151.234         -12.0651       -0.665198             -200               0             -200               0
0.0063                  -39.8668         151.621         -12.0651       -0.698844             -200               0             -200               0
0.0066                  -40.0449         152.025         -12.0652       -0.732463             -200               0             -200               0
0.0069                  -40.2189         152.433         -12.0653       -0.766053             -200               0             -200               0
0.0072                  -40.3137         152.704         -12.0654       -0.799591             -200               0             -200               0
0.0075                  -40.4092          152.98         -12.0655       -0.833109             -200               0             -200               0
0.0078                  -40.5428         153.336         -12.0656       -0.866623             -200               0             -200               0
0.0081                   -40.679         153.705         -12.0656       -0.900121             -200               0             -200               0
0.0084                  -40.8122         154.076         -12.0657       -0.933602             -200               0             -200               0
0.0087                  -40.8944         154.348         -12.0658       -0.967052             -200               0             -200               0
0.009                   -40.9772         154.625         -12.0659        -1.00049             -200               0             -200               0
0.0093                  -41.0848         154.961          -12.066        -1.03393             -200               0             -200               0
0.0096                  -41.1941         155.307          -12.066        -1.06735             -200               0             -200               0
0.0099                  -41.3012         155.654         -12.0661        -1.10076             -200               0             -200               0
0.0102                  -41.3729         155.926         -12.0662        -1.13416             -200               0             -200               0
0.0105                  -41.4451         156.203         -12.0662        -1.16754             -200               0             -200               0
0.0108                  -41.5345         156.525         -12.0663        -1.20093             -200               0             -200               0
0.0111                  -41.6251         156.856         -12.0664        -1.23431             -200               0             -200               0
0.0114                   -41.714         157.187         -12.0665        -1.26767             -200               0             -200               0
0.0117                  -41.7771         157.459         -12.0665        -1.30103             -200               0             -200               0
0.012                   -41.8404         157.735         -12.0666        -1.33438             -200               0             -200               0
0.0123                  -41.9164         158.048         -12.0667        -1.36773             -200               0             -200               0
0.0126                  -41.9933         158.367         -12.0667        -1.40107             -200               0             -200               0
0.0129                  -42.0687         158.688         -12.0668        -1.43441             -200               0             -200               0
0.0132                  -42.1246          158.96         -12.0669        -1.46773             -200               0             -200               0
0.0135                  -42.1807         159.235         -12.0669        -1.50106             -200               0             -200               0
0.0138                  -42.2462         159.541          -12.067        -1.53438             -200               0             -200               0
0.0141                  -42.3124         159.853         -12.0671        -1.56769             -200               0             -200               0
0.0144                  -42.3775         160.165         -12.0671        -1.60101             -200               0             -200               0
0.0147                  -42.4273         160.437         -12.0672        -1.63431             -200               0             -200               0
0.015                   -42.4772         160.712         -12.0673        -1.66762             -200               0             -200               0
0.0153                  -42.5344         161.013         -12.0673        -1.70092             -200               0             -200               0
0.0156                  -42.5921         161.319         -12.0674        -1.73421             -200               0             -200               0
0.0159                  -42.6488         161.626         -12.0675        -1.76751             -200               0             -200               0
0.0162                  -42.6934         161.898         -12.0675         -1.8008             -200               0             -200               0
0.0165                   -42.738         162.173         -12.0676        -1.83408             -200               0             -200               0
0.0168                  -42.7883         162.469         -12.0677        -1.86737             -200               0             -200               0
0.0171                  -42.8391         162.771         -12.0677        -1.90065             -200               0             -200               0
0.0174                  -42.8889         163.073         -12.0678        -1.93393             -200               0             -200               0
0.0177                  -42.9289         163.345         -12.0679         -1.9672             -200               0             -200               0
0.018                   -42.9688          163.62         -12.0679        -2.00048             -200               0             -200               0
0.0183                  -43.0134         163.913          -12.068        -2.03375             -200               0             -200               0
0.0186                  -43.0582         164.211          -12.068        -2.06702             -200               0             -200               0
0.0189                  -43.1023          164.51         -12.0681        -2.10028             -200               0             -200               0
0.0192                  -43.1382         164.782         -12.0682        -2.13355             -200               0             -200               0
0.0195                  -43.1739         165.057         -12.0682        -2.16681             -200               0             -200               0
0.0198                  -43.2135         165.348         -12.0683        -2.20007             -200               0             -200               0
0.0201                  -43.2533         165.643         -12.0684        -2.23333             -200               0             -200               0
0.0204                  -43.2924         165.938         -12.0684        -2.26658             -200               0             -200               0
0.0207                  -43.3246          166.21         -12.0685        -2.29984             -200               0             -200               0
0.021                   -43.3567         166.485         -12.0685        -2.33309             -200               0             -200               0
0.0213                  -43.3919         166.774         -12.0686        -2.36634             -200               0             -200               0
0.0216                  -43.4272         167.066         -12.0687        -2.39959             -200               0             -200               0
0.0219                   -43.462         167.359         -12.0687        -2.43284             -200               0             -200               0
0.0222                  -43.4908         167.631         -12.0688        -2.46608             -200               0             -200               0
0.0225                  -43.5196         167.906         -12.0688        -2.49932             -200               0             -200               0
0.0228                  -43.5509         168.193         -12.0689        -2.53257             -200               0             -200               0
0.0231                  -43.5823         168.483          -12.069        -2.56581             -200               0             -200               0
0.0234                  -43.6131         168.773          -12.069        -2.59905             -200               0             -200               0
0.0237                   -43.639         169.045         -12.0691        -2.63229             -200               0             -200               0
0.024                   -43.6646         169.319         -12.0692        -2.66552             -200               0             -200               0
0.0243                  -43.6925         169.604         -12.0692        -2.69876             -200               0             -200               0
0.0246                  -43.7203         169.892         -12.0693        -2.73199             -200               0             -200               0
0.0249                  -43.7476          170.18         -12.0693        -2.76523             -200               0             -200               0
0.0252                  -43.7706         170.452         -12.0694        -2.79846             -200               0             -200               0
0.0255                  -43.7935         170.725         -12.0695        -2.83169             -200               0             -200               0
0.0258                  -43.8181         171.008         -12.0695        -2.86492             -200               0             -200               0
0.0261                  -43.8428         171.294         -12.0696        -2.89815             -200               0             -200               0
0.0264                  -43.8669          171.58         -12.0696        -2.93137             -200               0             -200               0
0.0267                  -43.8873         171.851         -12.0697         -2.9646             -200               0             -200               0
0.027                   -43.9075         172.123         -12.0698        -2.99782             -200               0             -200               0
0.0273                  -43.9292         172.404         -12.0698        -3.03105             -200               0             -200               0
0.0276                  -43.9509         172.688         -12.0699        -3.06427             -200               0             -200               0
0.0279                  -43.9721         172.972         -12.0699        -3.09749             -200               0             -200               0
0.0282                  -43.9901         173.242           -12.07        -3.13071             -200               0             -200               0
0.0285                  -44.0078         173.513         -12.0701        -3.16393             -200               0             -200               0
0.0288                  -44.0268         173.792         -12.0701        -3.19715             -200               0             -200               0
0.0291                  -44.0458         174.073         -12.0702        -3.23037             -200               0             -200               0
0.0294                  -44.0643         174.355         -12.0702        -3.26359             -200               0             -200               0
0.0297                    -44.08         174.623         -12.0703         -3.2968             -200               0             -200               0
0.03                    -44.0954         174.893         -12.0704        -3.33002             -200               0             -200               0
0.0303                  -44.1119          175.17         -12.0704        -3.36323             -200               0             -200               0
0.0306                  -44.1283         175.449         -12.0705        -3.39645             -200               0             -200               0
0.0309                  -44.1444         175.728         -12.0705        -3.42966             -200               0             -200               0
0.0312                  -44.1578         175.995         -12.0706        -3.46287             -200               0             -200               0
0.0315                  -44.1711         176.263         -12.0706        -3.49608             -200               0             -200               0
0.0318                  -44.1853         176.538         -12.0707        -3.52929             -200               0             -200               0
0.0321                  -44.1993         176.815         -12.0708         -3.5625             -200               0             -200               0
0.0324                   -44.213         177.091         -12.0708        -3.59571             -200               0             -200               0
0.0327                  -44.2244         177.356         -12.0709        -3.62892             -200               0             -200               0
0.033                   -44.2356         177.622         -12.0709        -3.66213             -200               0             -200               0
0.0333                  -44.2476         177.895          -12.071        -3.69533             -200               0             -200               0
0.0336                  -44.2595         178.168         -12.0711        -3.72854             -200               0             -200               0
0.0339                  -44.2709         178.442         -12.0711        -3.76175             -200               0             -200               0
0.0342                  -44.2804         178.705         -12.0712        -3.79495             -200               0             -200               0
0.0345                  -44.2897         178.969         -12.0712        -3.82815             -200               0             -200               0
0.0348                  -44.2996         179.239         -12.0713        -3.86136             -200               0             -200               0
0.0351                  -44.3094          179.51         -12.0713        -3.89456             -200               0             -200               0
0.0354                  -44.3188          179.78         -12.0714        -3.92776             -200               0             -200               0
0.0357                  -44.3264        -179.959         -12.0715        -3.96096             -200               0             -200               0
0.036                   -44.3338        -179.698         -12.0715        -3.99416             -200               0             -200               0
0.0363                  -44.3418        -179.431         -12.0716        -4.02736             -200               0             -200               0
0.0366                  -44.3496        -179.163         -12.0716        -4.06056             -200               0             -200               0
0.0369                  -44.3571        -178.896         -12.0717        -4.09376             -200               0             -200               0
0.0372                   -44.363        -178.638         -12.0718        -4.12696             -200               0             -200               0
0.0375                  -44.3686        -178.379         -12.0718        -4.16016             -200               0             -200               0
0.0378                  -44.3747        -178.116         -12.0719        -4.19336             -200               0             -200               0
0.0381                  -44.3807        -177.851         -12.0719        -4.22655             -200               0             -200               0
0.0384                  -44.3864        -177.587          -12.072        -4.25975             -200               0             -200               0
0.0387                  -44.3906        -177.332          -12.072        -4.29294             -200               0             -200               0
0.039                   -44.3946        -177.076         -12.0721        -4.32614             -200               0             -200               0
0.0393                   -44.399        -176.816         -12.0722        -4.35933             -200               0             -200               0
0.0396                  -44.4032        -176.555         -12.0722        -4.39253             -200               0             -200               0
0.0399                  -44.4072        -176.295         -12.0723        -4.42572             -200               0             -200               0
0.0402                  -44.4098        -176.043         -12.0723        -4.45891             -200               0             -200               0
0.0405                  -44.4122         -175.79         -12.0724        -4.49211             -200               0             -200               0
0.0408                   -44.415        -175.534         -12.0724         -4.5253             -200               0             -200               0
0.0411                  -44.4176        -175.277         -12.0725        -4.55849             -200               0             -200               0
0.0414                  -44.4199         -175.02         -12.0726        -4.59168             -200               0             -200               0
0.0417                   -44.421        -174.771         -12.0726        -4.62487             -200               0             -200               0
0.042                    -44.422        -174.522         -12.0727        -4.65806             -200               0             -200               0
0.0423                  -44.4232         -174.27         -12.0727        -4.69125             -200               0             -200               0
0.0426                  -44.4242        -174.016         -12.0728        -4.72444             -200               0             -200               0
0.0429                   -44.425        -173.764         -12.0728        -4.75763             -200               0             -200               0
0.0432                  -44.4247        -173.518         -12.0729        -4.79082             -200               0             -200               0
0.0435                  -44.4242        -173.273          -12.073          -4.824             -200               0             -200               0
0.0438                  -44.4239        -173.024          -12.073        -4.85719             -200               0             -200               0
0.0441                  -44.4235        -172.775         -12.0731        -4.89038             -200               0             -200               0
0.0444                  -44.4229        -172.527         -12.0731        -4.92356             -200               0             -200               0
0.0447                  -44.4212        -172.285         -12.0732        -4.95675             -200               0             -200               0
0.045                   -44.4194        -172.043         -12.0732        -4.98993             -200               0             -200               0
0.0453                  -44.4177        -171.799         -12.0733        -5.02312             -200               0             -200               0
0.0456                   -44.416        -171.554         -12.0734         -5.0563             -200               0             -200               0
0.0459                  -44.4139         -171.31         -12.0734        -5.08949             -200               0             -200               0
0.0462                   -44.411        -171.072         -12.0735        -5.12267             -200               0             -200               0
0.0465                  -44.4079        -170.835         -12.0735        -5.15586             -200               0             -200               0
0.0468                  -44.4049        -170.594         -12.0736        -5.18904             -200               0             -200               0
0.0471                  -44.4019        -170.354         -12.0736        -5.22222             -200               0             -200               0
0.0474                  -44.3986        -170.114         -12.0737         -5.2554             -200               0             -200               0
0.0477                  -44.3944        -169.881         -12.0738        -5.28859             -200               0             -200               0
0.048                   -44.3901        -169.647         -12.0738        -5.32177             -200               0             -200               0
0.0483                  -44.3859        -169.411         -12.0739        -5.35495             -200               0             -200               0
0.0486                  -44.3816        -169.175         -12.0739        -5.38813             -200               0             -200               0
0.0489                  -44.3771         -168.94          -12.074        -5.42131             -200               0             -200               0
0.0492                  -44.3718        -168.711          -12.074        -5.45449             -200               0             -200               0
0.0495                  -44.3664        -168.482         -12.0741        -5.48767             -200               0             -200               0
0.0498                  -44.3611        -168.251         -12.0741        -5.52085             -200               0             -200               0
0.0501                  -44.3556        -168.019         -12.0742        -5.55403             -200               0             -200               0
0.0504                  -44.3499        -167.789         -12.0743        -5.58721             -200               0             -200               0
0.0507                  -44.3436        -167.564         -12.0743        -5.62038             -200               0             -200               0
0.051                   -44.3371        -167.339         -12.0744        -5.65356             -200               0             -200               0
0.0513                  -44.3307        -167.112         -12.0744        -5.68674             -200               0             -200               0
0.0516                  -44.3241        -166.886         -12.0745        -5.71992             -200               0             -200               0
0.0519                  -44.3174         -166.66         -12.0745        -5.75309             -200               0             -200               0
0.0522                  -44.3101        -166.439         -12.0746        -5.78627             -200               0             -200               0
0.0525                  -44.3026        -166.219         -12.0747        -5.81945             -200               0             -200               0
0.0528                  -44.2951        -165.997         -12.0747        -5.85262             -200               0             -200               0
0.0531                  -44.2876        -165.775         -12.0748         -5.8858             -200               0             -200               0
0.0534                  -44.2798        -165.555         -12.0748        -5.91897             -200               0             -200               0
0.0537                  -44.2715        -165.338         -12.0749        -5.95215             -200               0             -200               0
0.054                   -44.2631        -165.123         -12.0749        -5.98532             -200               0             -200               0
0.0543                  -44.2547        -164.906          -12.075         -6.0185             -200               0             -200               0
0.0546                  -44.2462        -164.689          -12.075        -6.05167             -200               0             -200               0
0.0549                  -44.2375        -164.473         -12.0751        -6.08484             -200               0             -200               0
0.0552                  -44.2283        -164.261         -12.0752        -6.11802             -200               0             -200               0
0.0555                   -44.219         -164.05         -12.0752        -6.15119             -200               0             -200               0
0.0558                  -44.2097        -163.838         -12.0753        -6.18436             -200               0             -200               0
0.0561                  -44.2003        -163.626         -12.0753        -6.21754             -200               0             -200               0
0.0564                  -44.1908        -163.415         -12.0754        -6.25071             -200               0             -200               0
0.0567                  -44.1808        -163.208         -12.0754        -6.28388             -200               0             -200               0
0.057                   -44.1706        -163.002         -12.0755        -6.31705             -200               0             -200               0
0.0573                  -44.1605        -162.795         -12.0756        -6.35022             -200               0             -200               0
0.0576                  -44.1503        -162.588         -12.0756         -6.3834             -200               0             -200               0
0.0579                  -44.1399        -162.381         -12.0757        -6.41657             -200               0             -200               0
0.0582                  -44.1291        -162.179         -12.0757        -6.44974             -200               0             -200               0
0.0585                  -44.1182        -161.978         -12.0758        -6.48291             -200               0             -200               0
0.0588                  -44.1073        -161.776         -12.0758        -6.51608             -200               0             -200               0