! TOUCHSTONE file generated by CST MICROWAVE STUDIO
! Date and time: Sun Oct 12 18:13:02 2025
! Project name: calkit_sim.cst
! Parameters = {Rgap=0.9; ceq=6.5e-14; cu_t=0.035; dut_x=83.3333; k=7.07; leq=1.1e-09; line_gap=0.9; line_w=2.5; match_x=66.6667; open_x=16.6667; pad_g=1; pad_x=1.45; pad_z=0.9; ref_1=23.3333; ref_2=16.6667; res_h=0.32; res_len=1; res_w=0.5; short_x=33.3333; sus_l=100; sus_t=1.6; sus_w=40; thru_x=50; vias_r=1}
! Header version: 2015
! Port assignment regex: !\s*Touchstone port\s*([0-9]+)\s*=\s*CST MWS port\s*([0-9]+)\s*\(\"(.*)\"\)(\s*mode\s*([0-9]+))?.*
! Touchstone port assignment:
! Touchstone port 1 = CST MWS port 1 ("")
# GHz S DB R 50
0                       -41.6085             180
0.0003                  -36.2668         116.709
0.0006                  -36.0306         117.018
0.0009                  -35.7696         117.772
0.0012                  -36.4524         117.095
0.0015                  -37.6475         116.576
0.0018                  -38.4841         118.545
0.0021                  -39.3528         121.309
0.0024                  -40.1893         124.534
0.0027                  -39.7117         129.016
0.003                   -39.4307         131.428
0.0033                  -39.8106         132.343
0.0036                  -40.2189         133.273
0.0039                  -40.6178         134.221
0.0042                  -40.6172         135.264
0.0045                  -40.6327         136.182
0.0048                   -40.832         137.032
0.0051                  -41.0388         137.907
0.0054                  -41.2375          138.78
0.0057                  -41.2574         139.573
0.006                   -41.2912         140.283
0.0063                  -41.4162         140.987
0.0066                  -41.5441         141.708
0.0069                  -41.6667         142.422
0.0072                  -41.6907         143.043
0.0075                  -41.7242         143.615
0.0078                  -41.8105         144.203
0.0081                   -41.898         144.803
0.0084                  -41.9812           145.4
0.0087                   -42.002          145.92
0.009                   -42.0281         146.415
0.0093                  -42.0906          146.92
0.0096                  -42.1593         147.409
0.0099                  -42.2274         147.886
0.0102                  -42.2526         148.302
0.0105                   -42.277         148.722
0.0108                  -42.3225         149.171
0.0111                  -42.3724          149.61
0.0114                  -42.4223         150.038
0.0117                   -42.443         150.409
0.012                   -42.4652         150.775
0.0123                  -42.5019         151.168
0.0126                  -42.5387         151.566
0.0129                  -42.5744         151.959
0.0132                   -42.589         152.302
0.0135                  -42.6071         152.634
0.0138                  -42.6384          152.98
0.0141                  -42.6699          153.33
0.0144                  -42.7003         153.677
0.0147                  -42.7143         153.984
0.015                   -42.7305         154.284
0.0153                  -42.7563         154.599
0.0156                  -42.7822         154.917
0.0159                  -42.8073         155.232
0.0162                  -42.8196         155.513
0.0165                  -42.8336         155.789
0.0168                  -42.8551         156.079
0.0171                  -42.8768         156.371
0.0174                  -42.8977         156.661
0.0177                  -42.9085         156.921
0.018                   -42.9207         157.178
0.0183                  -42.9388         157.446
0.0186                  -42.9571         157.717
0.0189                  -42.9749         157.985
0.0192                  -42.9843         158.228
0.0195                  -42.9949         158.469
0.0198                  -43.0104          158.72
0.0201                   -43.026         158.972
0.0204                  -43.0411         159.223
0.0207                  -43.0493         159.452
0.021                   -43.0585         159.678
0.0213                  -43.0718         159.914
0.0216                  -43.0852         160.151
0.0219                  -43.0981         160.387
0.0222                  -43.1054         160.604
0.0225                  -43.1134         160.818
0.0228                  -43.1249         161.041
0.0231                  -43.1364         161.265
0.0234                  -43.1475         161.488
0.0237                  -43.1538         161.694
0.024                   -43.1608         161.899
0.0243                  -43.1707          162.11
0.0246                  -43.1806         162.323
0.0249                  -43.1902         162.535
0.0252                  -43.1957         162.732
0.0255                  -43.2018         162.927
0.0258                  -43.2104         163.129
0.0261                   -43.219         163.332
0.0264                  -43.2273         163.534
0.0267                   -43.232         163.723
0.027                   -43.2373          163.91
0.0273                  -43.2447         164.104
0.0276                  -43.2521         164.298
0.0279                  -43.2593         164.492
0.0282                  -43.2634         164.673
0.0285                  -43.2679         164.854
0.0288                  -43.2743         165.039
0.0291                  -43.2807         165.226
0.0294                  -43.2869         165.412
0.0297                  -43.2904         165.587
0.03                    -43.2943         165.761
0.0303                  -43.2997          165.94
0.0306                  -43.3052          166.12
0.0309                  -43.3105         166.299
0.0312                  -43.3135         166.468
0.0315                  -43.3167         166.637
0.0318                  -43.3214          166.81
0.0321                  -43.3261         166.984
0.0324                  -43.3306         167.157
0.0327                   -43.333         167.321
0.033                   -43.3358         167.484
0.0333                  -43.3397         167.651
0.0336                  -43.3437          167.82
0.0339                  -43.3475         167.987
0.0342                  -43.3495         168.146
0.0345                  -43.3517         168.305
0.0348                   -43.355         168.468
0.0351                  -43.3583         168.631
0.0354                  -43.3614         168.793
0.0357                  -43.3628         168.948
0.036                   -43.3644         169.103
0.0363                  -43.3671         169.261
0.0366                    -43.37         169.419
0.0369                  -43.3729         169.577
0.0372                  -43.3743         169.727
0.0375                  -43.3758         169.878
0.0378                  -43.3778         170.032
0.0381                  -43.3799         170.186
0.0384                  -43.3818          170.34
0.0387                  -43.3824         170.487
0.039                   -43.3833         170.634
0.0393                   -43.385         170.784
0.0396                  -43.3867         170.935
0.0399                  -43.3882         171.084
0.0402                  -43.3886         171.228
0.0405                  -43.3892         171.372
0.0408                  -43.3904         171.518
0.0411                  -43.3916         171.665
0.0414                  -43.3927         171.811
0.0417                  -43.3927         171.952
0.042                   -43.3929         172.092
0.0423                  -43.3937         172.235
0.0426                  -43.3945         172.378
0.0429                  -43.3952         172.521
0.0432                  -43.3949         172.659
0.0435                  -43.3948         172.797
0.0438                  -43.3952         172.936
0.0441                  -43.3956         173.077
0.0444                  -43.3958         173.217
0.0447                  -43.3952         173.352
0.045                   -43.3946         173.486
0.0453                  -43.3946         173.623
0.0456                  -43.3948         173.761
0.0459                  -43.3949         173.897
0.0462                  -43.3942          174.03
0.0465                  -43.3935         174.162
0.0468                  -43.3931         174.296
0.0471                  -43.3927         174.431
0.0474                  -43.3922         174.565
0.0477                   -43.391         174.695
0.048                     -43.39         174.824
0.0483                  -43.3893         174.956
0.0486                  -43.3887         175.088
0.0489                  -43.3879          175.22
0.0492                  -43.3865         175.347
0.0495                  -43.3852         175.475
0.0498                  -43.3843         175.604
0.0501                  -43.3833         175.733
0.0504                  -43.3823         175.862
0.0507                  -43.3806         175.988
0.051                    -43.379         176.113
0.0513                  -43.3778          176.24
0.0516                  -43.3765         176.367
0.0519                  -43.3752         176.494
0.0522                  -43.3733         176.617
0.0525                  -43.3715          176.74
0.0528                    -43.37         176.865
0.0531                  -43.3685          176.99
0.0534                  -43.3669         177.114
0.0537                  -43.3647         177.235
0.054                   -43.3627         177.357
0.0543                  -43.3609         177.479
0.0546                  -43.3591         177.602
0.0549                  -43.3572         177.724
0.0552                  -43.3549         177.844
0.0555                  -43.3526         177.963
0.0558                  -43.3506         178.083
0.0561                  -43.3485         178.204
0.0564                  -43.3464         178.325
0.0567                  -43.3439         178.442
0.057                   -43.3414         178.559
0.0573                  -43.3391         178.678
0.0576                  -43.3368         178.797
0.0579                  -43.3345         178.915
0.0582                  -43.3317         179.031
0.0585                   -43.329         179.147
0.0588                  -43.3265         179.263
0.0591                   -43.324          179.38
0.0594                  -43.3214         179.497
0.0597                  -43.3185         179.611
0.06                    -43.3156         179.725
0.0603                  -43.3128          179.84
0.0606                  -43.3101         179.955
0.0609                  -43.3073         -179.93
0.0612                  -43.3042        -179.818
0.0615                  -43.3011        -179.706
0.0618                  -43.2982        -179.592
0.0621                  -43.2952        -179.479
0.0624                  -43.2923        -179.366
0.0627                  -43.2889        -179.255
0.063                   -43.2856        -179.145
0.0633                  -43.2825        -179.033
0.0636                  -43.2794        -178.921
0.0639                  -43.2762         -178.81
0.0642                  -43.2727        -178.701
0.0645                  -43.2692        -178.592
0.0648                  -43.2659        -178.482
0.0651                  -43.2626        -178.371
0.0654                  -43.2592        -178.262
0.0657                  -43.2555        -178.154
0.066                   -43.2519        -178.046
0.0663                  -43.2484        -177.938
0.0666                  -43.2449        -177.829
0.0669                  -43.2413        -177.721
0.0672                  -43.2375        -177.615
0.0675                  -43.2337        -177.509
0.0678                    -43.23        -177.402
0.0681                  -43.2263        -177.295
0.0684                  -43.2226        -177.188
0.0687                  -43.2186        -177.083
0.069                   -43.2146        -176.979
0.0693                  -43.2107        -176.873
0.0696                  -43.2069        -176.768
0.0699                   -43.203        -176.663
0.0702                  -43.1989        -176.559
0.0705                  -43.1948        -176.456
0.0708                  -43.1908        -176.352
0.0711                  -43.1868        -176.248
0.0714                  -43.1827        -176.144
0.0717                  -43.1785        -176.042
0.072                   -43.1742         -175.94
0.0723                    -43.17        -175.838
0.0726                  -43.1658        -175.735
0.0729                  -43.1616        -175.632
0.0732                  -43.1571        -175.532
0.0735                  -43.1527        -175.431
0.0738                  -43.1484         -175.33
0.0741                  -43.1441        -175.229
0.0744                  -43.1397        -175.128
0.0747                  -43.1351        -175.028
0.075                   -43.1306        -174.929
0.0753                  -43.1261        -174.829
0.0756                  -43.1216        -174.729
0.0759                  -43.1171        -174.629
0.0762                  -43.1124        -174.531
0.0765                  -43.1077        -174.433
0.0768                  -43.1031        -174.335
0.0771                  -43.0985        -174.236
0.0774                  -43.0939        -174.138
0.0777                   -43.089        -174.041
0.078                   -43.0842        -173.944
0.0783                  -43.0795        -173.847
0.0786                  -43.0747        -173.749
0.0789                  -43.0699        -173.652
0.0792                   -43.065        -173.557
0.0795                    -43.06        -173.461
0.0798                  -43.0551        -173.365
0.0801                  -43.0503        -173.269
0.0804                  -43.0453        -173.173
0.0807                  -43.0403        -173.079
0.081                   -43.0352        -172.984
0.0813                  -43.0302         -172.89
0.0816                  -43.0252        -172.795
0.0819                  -43.0201          -172.7
0.0822                  -43.0149        -172.607
0.0825                  -43.0098        -172.514
0.0828                  -43.0046         -172.42
0.0831                  -42.9995        -172.326
0.0834                  -42.9943        -172.233
0.0837                   -42.989        -172.141
0.084                   -42.9837        -172.049
0.0843                  -42.9785        -171.957
0.0846                  -42.9732        -171.864
0.0849                   -42.968        -171.772
0.0852                  -42.9625        -171.681
0.0855                  -42.9571         -171.59
0.0858                  -42.9518        -171.499
0.0861                  -42.9464        -171.408
0.0864                   -42.941        -171.316
0.0867                  -42.9355        -171.227
0.087                     -42.93        -171.137
0.0873                  -42.9245        -171.047
0.0876                   -42.919        -170.957
0.0879                  -42.9135        -170.867
0.0882                  -42.9079        -170.778
0.0885                  -42.9023        -170.689
0.0888                  -42.8967        -170.601
0.0891                  -42.8911        -170.511
0.0894                  -42.8855        -170.423
0.0897                  -42.8798        -170.335
0.09                    -42.8741        -170.247
0.0903                  -42.8684         -170.16
0.0906                  -42.8627        -170.072
0.0909                  -42.8571        -169.984
0.0912                  -42.8513        -169.897
0.0915                  -42.8455        -169.811
0.0918                  -42.8397        -169.724
0.0921                  -42.8339        -169.638
0.0924                  -42.8281        -169.551
0.0927                  -42.8221        -169.465
0.093                   -42.8162         -169.38
0.0933                  -42.8104        -169.294
0.0936                  -42.8045        -169.209
0.0939                  -42.7986        -169.123
0.0942                  -42.7926        -169.039
0.0945                  -42.7866        -168.954
0.0948                  -42.7806         -168.87
0.0951                  -42.7747        -168.785
0.0954                  -42.7687        -168.701
0.0957                  -42.7626        -168.617
0.096                   -42.7565        -168.534
0.0963                  -42.7505         -168.45
0.0966                  -42.7444        -168.367
0.0969                  -42.7383        -168.283
0.0972                  -42.7321        -168.201
0.0975                   -42.726        -168.119
0.0978                  -42.7199        -168.036
0.0981                  -42.7137        -167.954
0.0984                  -42.7075        -167.871
0.0987                  -42.7013         -167.79
0.099                    -42.695        -167.709
0.0993                  -42.6888        -167.627
0.0996                  -42.6826        -167.545
0.0999                  -42.6764        -167.464
0.1002                    -42.67        -167.384
0.1005                  -42.6637        -167.303
0.1008                  -42.6574        -167.223
0.1011                  -42.6511        -167.142
0.1014                  -42.6448        -167.062
0.1017                  -42.6384        -166.983
0.102                    -42.632        -166.903
0.1023                  -42.6256        -166.824
0.1026                  -42.6192        -166.744
0.1029                  -42.6128        -166.665
0.1032                  -42.6064        -166.586
0.1035                  -42.5999        -166.508
0.1038                  -42.5934         -166.43
0.1041                   -42.587        -166.351
0.1044                  -42.5805        -166.273
0.1047                   -42.574        -166.195
0.105                   -42.5674        -166.118
0.1053                  -42.5609         -166.04
0.1056                  -42.5544        -165.963
0.1059                  -42.5479        -165.885
0.1062                  -42.5412        -165.809
0.1065                  -42.5346        -165.732
0.1068                   -42.528        -165.655
0.1071                  -42.5215        -165.579
0.1074                  -42.5148        -165.502
0.1077                  -42.5082        -165.427
0.108                   -42.5015        -165.351
0.1083                  -42.4948        -165.276
0.1086                  -42.4882          -165.2
0.1089                  -42.4815        -165.124
0.1092                  -42.4748         -165.05
0.1095                   -42.468        -164.975
0.1098                  -42.4613          -164.9
0.1101                  -42.4546        -164.826
0.1104                  -42.4479        -164.751
0.1107                  -42.4411        -164.677
0.111                   -42.4343        -164.603
0.1113                  -42.4275         -164.53
0.1116                  -42.4207        -164.456
0.1119                  -42.4139        -164.382
0.1122                  -42.4071        -164.309
0.1125                  -42.4002        -164.236
0.1128                  -42.3934        -164.163
0.1131                  -42.3865        -164.091
0.1134                  -42.3797        -164.018
0.1137                  -42.3728        -163.946
0.114                   -42.3659        -163.874
0.1143                   -42.359        -163.802
0.1146                  -42.3521         -163.73
0.1149                  -42.3452        -163.658
0.1152                  -42.3382        -163.587
0.1155                  -42.3312        -163.516
0.1158                  -42.3243        -163.445
0.1161                  -42.3173        -163.374
0.1164                  -42.3104        -163.303
0.1167                  -42.3034        -163.232
0.117                   -42.2963        -163.162
0.1173                  -42.2894        -163.092
0.1176                  -42.2824        -163.022
0.1179                  -42.2753        -162.952
0.1182                  -42.2683        -162.882
0.1185                  -42.2612        -162.813
0.1188                  -42.2542        -162.743
0.1191                  -42.2471        -162.674
0.1194                    -42.24        -162.605
0.1197                  -42.2329        -162.536
0.12                    -42.2258        -162.468
0.1203                  -42.2187        -162.399
0.1206                  -42.2116        -162.331
0.1209                  -42.2045        -162.262
0.1212                  -42.1974        -162.195
0.1215                  -42.1902        -162.127
0.1218                  -42.1831        -162.059
0.1221                  -42.1759        -161.992
0.1224                  -42.1688        -161.924
0.1227                  -42.1616        -161.857
0.123                   -42.1544         -161.79
0.1233                  -42.1472        -161.724
0.1236                    -42.14        -161.657
0.1239                  -42.1328         -161.59
0.1242                  -42.1256        -161.524
0.1245                  -42.1183        -161.458
0.1248                  -42.1111        -161.392
0.1251                  -42.1039        -161.326
0.1254                  -42.0966         -161.26
0.1257                  -42.0894        -161.195
0.126                   -42.0821         -161.13
0.1263                  -42.0748        -161.064
0.1266                  -42.0675        -160.999
0.1269                  -42.0603        -160.934
0.1272                  -42.0529         -160.87
0.1275                  -42.0456        -160.805
0.1278                  -42.0383        -160.741
0.1281                   -42.031        -160.677
0.1284                  -42.0237        -160.612
0.1287                  -42.0163        -160.549
0.129                    -42.009        -160.485
0.1293                  -42.0017        -160.421
0.1296                  -41.9943        -160.358
0.1299                   -41.987        -160.294
0.1302                  -41.9796        -160.232
0.1305                  -41.9722        -160.169
0.1308                  -41.9648        -160.106
0.1311                  -41.9574        -160.043
0.1314                  -41.9501         -159.98
0.1317                  -41.9426        -159.918
0.132                   -41.9352        -159.856
0.1323                  -41.9278        -159.794
0.1326                  -41.9204        -159.732
0.1329                   -41.913         -159.67
0.1332                  -41.9055        -159.609
0.1335                  -41.8981        -159.548
0.1338                  -41.8906        -159.487
0.1341                  -41.8832        -159.425
0.1344                  -41.8757        -159.364
0.1347                  -41.8683        -159.304
0.135                   -41.8608        -159.243
0.1353                  -41.8533        -159.183
0.1356                  -41.8458        -159.122
0.1359                  -41.8384        -159.062
0.1362                  -41.8309        -159.002
0.1365                  -41.8233        -158.942
0.1368                  -41.8158        -158.882
0.1371                  -41.8083        -158.823
0.1374                  -41.8008        -158.763
0.1377                  -41.7933        -158.704
0.138                   -41.7858        -158.645
0.1383                  -41.7783        -158.586
0.1386                  -41.7707        -158.527
0.1389                  -41.7632        -158.468
0.1392                  -41.7556         -158.41
0.1395                  -41.7481        -158.351
0.1398                  -41.7405        -158.293
0.1401                   -41.733        -158.235
0.1404                  -41.7254        -158.177
0.1407                  -41.7178        -158.119
0.141                   -41.7103        -158.062
0.1413                  -41.7027        -158.004
0.1416                  -41.6951        -157.947
0.1419                  -41.6875        -157.889
0.1422                  -41.6799        -157.832
0.1425                  -41.6723        -157.775
0.1428                  -41.6647        -157.719
0.1431                  -41.6571        -157.662
0.1434                  -41.6495        -157.605
0.1437                  -41.6419        -157.549
0.144                   -41.6343        -157.493
0.1443                  -41.6267        -157.437
0.1446                   -41.619        -157.381
0.1449                  -41.6114        -157.325
0.1452                  -41.6038        -157.269
0.1455                  -41.5961        -157.214
0.1458                  -41.5885        -157.158
0.1461                  -41.5808        -157.103
0.1464                  -41.5732        -157.048
0.1467                  -41.5655        -156.993
0.147                   -41.5579        -156.938
0.1473                  -41.5502        -156.883
0.1476                  -41.5426        -156.829
0.1479                  -41.5349        -156.774
0.1482                  -41.5272         -156.72
0.1485                  -41.5195        -156.666
0.1488                  -41.5119        -156.612
0.1491                  -41.5042        -156.558
0.1494                  -41.4965        -156.504
0.1497                  -41.4888        -156.451
0.15                    -41.4811        -156.397
0.1503                  -41.4734        -156.344
0.1506                  -41.4657         -156.29
0.1509                  -41.4581        -156.237
0.1512                  -41.4503        -156.184
0.1515                  -41.4426        -156.132
0.1518                  -41.4349        -156.079
0.1521                  -41.4272        -156.026
0.1524                  -41.4195        -155.974
0.1527                  -41.4118        -155.922
0.153                   -41.4041         -155.87
0.1533                  -41.3963        -155.818
0.1536                  -41.3886        -155.766
0.1539                  -41.3809        -155.714
0.1542                  -41.3732        -155.662
0.1545                  -41.3654        -155.611
0.1548                  -41.3577         -155.56
0.1551                    -41.35        -155.508
0.1554                  -41.3422        -155.457
0.1557                  -41.3345        -155.406
0.156                   -41.3267        -155.355
0.1563                   -41.319        -155.305
0.1566                  -41.3112        -155.254
0.1569                  -41.3035        -155.203
0.1572                  -41.2957        -155.153
0.1575                   -41.288        -155.103
0.1578                  -41.2802        -155.053
0.1581                  -41.2725        -155.003
0.1584                  -41.2647        -154.953
0.1587                  -41.2569        -154.903
0.159                   -41.2492        -154.854
0.1593                  -41.2414        -154.805
0.1596                  -41.2336        -154.755
0.1599                  -41.2259        -154.706
0.1602                  -41.2181        -154.657
0.1605                  -41.2103        -154.608
0.1608                  -41.2026        -154.559
0.1611                  -41.1948         -154.51
0.1614                   -41.187        -154.462
0.1617                  -41.1792        -154.413
0.162                   -41.1714        -154.365
0.1623                  -41.1637        -154.317
0.1626                  -41.1559        -154.269
0.1629                  -41.1481        -154.221
0.1632                  -41.1403        -154.173
0.1635                  -41.1325        -154.125
0.1638                  -41.1247        -154.078
0.1641                  -41.1169         -154.03
0.1644                  -41.1091        -153.983
0.1647                  -41.1013        -153.936
0.165                   -41.0935        -153.889
0.1653                  -41.0858        -153.842
0.1656                   -41.078        -153.795
0.1659                  -41.0702        -153.748
0.1662                  -41.0624        -153.701
0.1665                  -41.0546        -153.655
0.1668                  -41.0468        -153.608
0.1671                   -41.039        -153.562
0.1674                  -41.0312        -153.516
0.1677                  -41.0234         -153.47
0.168                   -41.0156        -153.424
0.1683                  -41.0078        -153.378
0.1686                       -41        -153.332
0.1689                  -40.9922        -153.287
0.1692                  -40.9843        -153.241
0.1695                  -40.9765        -153.196
0.1698                  -40.9687        -153.151
0.1701                  -40.9609        -153.106
0.1704                  -40.9531        -153.061
0.1707                  -40.9453        -153.016
0.171                   -40.9375        -152.971
0.1713                  -40.9297        -152.926
0.1716                  -40.9219        -152.882
0.1719                  -40.9141        -152.837
0.1722                  -40.9062        -152.793
0.1725                  -40.8984        -152.749
0.1728                  -40.8906        -152.705
0.1731                  -40.8828        -152.661
0.1734                   -40.875        -152.617
0.1737                  -40.8672        -152.573
0.174                   -40.8594         -152.53
0.1743                  -40.8516        -152.486
0.1746                  -40.8437        -152.443
0.1749                  -40.8359        -152.399
0.1752                  -40.8281        -152.356
0.1755                  -40.8203        -152.313
0.1758                  -40.8125         -152.27
0.1761                  -40.8047        -152.227
0.1764                  -40.7969        -152.184
0.1767                  -40.7891        -152.142
0.177                   -40.7812        -152.099
0.1773                  -40.7734        -152.057
0.1776                  -40.7656        -152.015
0.1779                  -40.7578        -151.972
0.1782                    -40.75         -151.93
0.1785                  -40.7422        -151.888
0.1788                  -40.7344        -151.846
0.1791                  -40.7265        -151.805