! TOUCHSTONE file generated by CST MICROWAVE STUDIO
! Date and time: Sun Oct 12 17:58:32 2025
! Project name: calkit_sim.cst
! Parameters = {Rgap=0.9; ceq=6.5e-14; cu_t=0.035; dut_x=83.3333; k=7.07; leq=1.1e-09; line_gap=0.9; line_w=2.5; match_x=66.6667; open_x=16.6667; pad_g=1; pad_x=1.45; pad_z=0.9; ref_1=23.3333; ref_2=16.6667; res_h=0.32; res_len=1; res_w=0.5; short_x=33.3333; sus_l=100; sus_t=1.6; sus_w=40; thru_x=50; vias_r=1}
! Header version: 2015
! Port assignment regex: !\s*Touchstone port\s*([0-9]+)\s*=\s*CST MWS port\s*([0-9]+)\s*\(\"(.*)\"\)(\s*mode\s*([0-9]+))?.*
! Touchstone port assignment:
! Touchstone port 1 = CST MWS port 1 ("")
# GHz S DB R 50
0                   -2.74098e-10               0
0.0003              -0.000201013      -0.0309789
0.0006               -0.00040851      -0.0619902
0.0009              -0.000622679      -0.0930594
0.0012              -0.000791449       -0.123908
0.0015              -0.000909565         -0.1546
0.0018               -0.00102041       -0.185473
0.0021               -0.00110858       -0.216364
0.0024               -0.00118176       -0.247267
0.0027               -0.00133042       -0.278714
0.003                -0.00147832        -0.31003
0.0033               -0.00157987       -0.340919
0.0036               -0.00167265       -0.371773
0.0039               -0.00176059       -0.402612
0.0042               -0.00188206       -0.433691
0.0045                -0.0020015       -0.464758
0.0048               -0.00209939        -0.49569
0.0051               -0.00219258        -0.52661
0.0054               -0.00228339       -0.557527
0.0057               -0.00239364        -0.58858
0.006                -0.00250209       -0.619615
0.0063               -0.00259736       -0.650565
0.0066               -0.00268958       -0.681509
0.0069               -0.00278035       -0.712451
0.0072                -0.0028843       -0.743485
0.0075               -0.00298679       -0.774504
0.0078                -0.0030801       -0.805463
0.0081               -0.00317121       -0.836419
0.0084               -0.00326133       -0.867376
0.0087               -0.00336118       -0.898402
0.009                -0.00345986       -0.929419
0.0093               -0.00355162       -0.960386
0.0096               -0.00364166       -0.991339
0.0099               -0.00373096        -1.02229
0.0102               -0.00382782        -1.05329
0.0105               -0.00392375         -1.0843
0.0108               -0.00401427        -1.11527
0.0111               -0.00410341        -1.14624
0.0114               -0.00419198         -1.1772
0.0117               -0.00428664         -1.2082
0.012                -0.00438049         -1.2392
0.0123               -0.00446996        -1.27017
0.0126               -0.00455831        -1.30115
0.0129               -0.00464621        -1.33212
0.0132               -0.00473916        -1.36313
0.0135                -0.0048314        -1.39413
0.0138               -0.00491996         -1.4251
0.0141               -0.00500756        -1.45607
0.0144                -0.0050948        -1.48705
0.0147               -0.00518633        -1.51805
0.015                -0.00527724        -1.54904
0.0153               -0.00536503        -1.58001
0.0156               -0.00545199        -1.61099
0.0159               -0.00553865        -1.64196
0.0162               -0.00562899        -1.67296
0.0165                -0.0057188        -1.70395
0.0168               -0.00580591        -1.73493
0.0171                -0.0058923         -1.7659
0.0174               -0.00597843        -1.79688
0.0177               -0.00606778        -1.82787
0.018                -0.00615665        -1.85887
0.0183               -0.00624316        -1.88984
0.0186               -0.00632904        -1.92082
0.0189               -0.00641468        -1.95179
0.0192               -0.00650317        -1.98279
0.0195               -0.00659123        -2.01378
0.0198               -0.00667721        -2.04475
0.0201               -0.00676261        -2.07573
0.0204               -0.00684781        -2.10671
0.0207               -0.00693555         -2.1377
0.021                -0.00702291        -2.16869
0.0213               -0.00710841        -2.19967
0.0216               -0.00719338        -2.23065
0.0219               -0.00727818        -2.26162
0.0222               -0.00736526        -2.29261
0.0225               -0.00745198         -2.3236
0.0228               -0.00753705        -2.35458
0.0231               -0.00762163        -2.38556
0.0234               -0.00770605        -2.41654
0.0237               -0.00779254        -2.44753
0.024                -0.00787871        -2.47852
0.0243               -0.00796338        -2.50949
0.0246                -0.0080476        -2.54047
0.0249               -0.00813168        -2.57145
0.0252               -0.00821764        -2.60244
0.0255               -0.00830331        -2.63343
0.0258               -0.00838761        -2.66441
0.0261                -0.0084715        -2.69539
0.0264               -0.00855525        -2.72636
0.0267               -0.00864074        -2.75735
0.027                -0.00872595        -2.78834
0.0273               -0.00880991        -2.81932
0.0276               -0.00889349         -2.8503
0.0279               -0.00897695        -2.88128
0.0282                 -0.009062        -2.91227
0.0285               -0.00914679        -2.94325
0.0288               -0.00923044        -2.97423
0.0291               -0.00931373        -3.00521
0.0294               -0.00939692        -3.03619
0.0297               -0.00948157        -3.06718
0.03                 -0.00956598        -3.09816
0.0303               -0.00964934        -3.12914
0.0306               -0.00973236        -3.16012
0.0309               -0.00981528         -3.1911
0.0312               -0.00989957        -3.22209
0.0315               -0.00998363        -3.25307
0.0318                -0.0100667        -3.28405
0.0321                -0.0101495        -3.31503
0.0324                -0.0102322        -3.34601
0.0327                -0.0103161          -3.377
0.033                 -0.0103999        -3.40798
0.0333                -0.0104827        -3.43896
0.0336                -0.0105652        -3.46994
0.0339                -0.0106477        -3.50092
0.0342                -0.0107313        -3.53191
0.0345                -0.0108147        -3.56289
0.0348                -0.0108973        -3.59387
0.0351                -0.0109796        -3.62485
0.0354                -0.0110619        -3.65583
0.0357                -0.0111452        -3.68682
0.036                 -0.0112284         -3.7178
0.0363                -0.0113107        -3.74878
0.0366                -0.0113928        -3.77976
0.0369                -0.0114749        -3.81074
0.0372                -0.0115579        -3.84172
0.0375                -0.0116408        -3.87271
0.0378                 -0.011723        -3.90369
0.0381                -0.0118049        -3.93467
0.0384                -0.0118867        -3.96565
0.0387                -0.0119695        -3.99663
0.039                 -0.0120522        -4.02762
0.0393                -0.0121341        -4.05859
0.0396                -0.0122158        -4.08957
0.0399                -0.0122975        -4.12055
0.0402                  -0.01238        -4.15154
0.0405                -0.0124625        -4.18252
0.0408                -0.0125442         -4.2135
0.0411                -0.0126257        -4.24448
0.0414                -0.0127072        -4.27546
0.0417                -0.0127896        -4.30644
0.042                 -0.0128718        -4.33743
0.0423                -0.0129533        -4.36841
0.0426                -0.0130347        -4.39938
0.0429                 -0.013116        -4.43036
0.0432                -0.0131981        -4.46135
0.0435                -0.0132801        -4.49233
0.0438                -0.0133615        -4.52331
0.0441                -0.0134427        -4.55429
0.0444                -0.0135238        -4.58527
0.0447                -0.0136058        -4.61625
0.045                 -0.0136876        -4.64724
0.0453                -0.0137688        -4.67822
0.0456                -0.0138499        -4.70919
0.0459                -0.0139308        -4.74017
0.0462                -0.0140126        -4.77115
0.0465                -0.0140942        -4.80213
0.0468                -0.0141753        -4.83311
0.0471                -0.0142561        -4.86409
0.0474                 -0.014337        -4.89507
0.0477                -0.0144185        -4.92606
0.048                    -0.0145        -4.95704
0.0483                -0.0145809        -4.98802
0.0486                -0.0146616        -5.01899
0.0489                -0.0147423        -5.04997
0.0492                -0.0148237        -5.08096
0.0495                 -0.014905        -5.11194
0.0498                -0.0149858        -5.14292
0.0501                -0.0150664        -5.17389
0.0504                -0.0151469        -5.20487
0.0507                -0.0152281        -5.23585
0.051                 -0.0153092        -5.26684
0.0513                -0.0153899        -5.29781
0.0516                -0.0154704        -5.32879
0.0519                -0.0155508        -5.35977
0.0522                -0.0156318        -5.39075
0.0525                -0.0157128        -5.42173
0.0528                -0.0157933        -5.45271
0.0531                -0.0158736        -5.48369
0.0534                -0.0159539        -5.51467
0.0537                -0.0160348        -5.54565
0.054                 -0.0161156        -5.57663
0.0543                 -0.016196        -5.60761
0.0546                -0.0162762        -5.63859
0.0549                -0.0163564        -5.66956
0.0552                -0.0164372        -5.70054
0.0555                -0.0165178        -5.73153
0.0558                -0.0165981         -5.7625
0.0561                -0.0166782        -5.79348
0.0564                -0.0167583        -5.82446
0.0567                -0.0168389        -5.85544
0.057                 -0.0169194        -5.88642
0.0573                -0.0169995         -5.9174
0.0576                -0.0170795        -5.94837
0.0579                -0.0171595        -5.97935
0.0582                  -0.01724        -6.01033
0.0585                -0.0173203        -6.04131
0.0588                -0.0174004        -6.07229
0.0591                -0.0174802        -6.10326
0.0594                -0.0175601        -6.13424
0.0597                -0.0176404        -6.16522
0.06                  -0.0177207         -6.1962
0.0603                -0.0178006        -6.22718
0.0606                -0.0178804        -6.25816
0.0609                -0.0179601        -6.28913
0.0612                -0.0180403        -6.32011
0.0615                -0.0181205        -6.35109
0.0618                -0.0182003        -6.38207
0.0621                -0.0182799        -6.41304
0.0624                -0.0183596        -6.44402
0.0627                -0.0184397          -6.475
0.063                 -0.0185197        -6.50598
0.0633                -0.0185994        -6.53696
0.0636                 -0.018679        -6.56793
0.0639                -0.0187585        -6.59891
0.0642                -0.0188385        -6.62989
0.0645                -0.0189184        -6.66086
0.0648                 -0.018998        -6.69184
0.0651                -0.0190775        -6.72282
0.0654                -0.0191569        -6.75379
0.0657                -0.0192368        -6.78477
0.066                 -0.0193166        -6.81575
0.0663                -0.0193961        -6.84673
0.0666                -0.0194754         -6.8777
0.0669                -0.0195548        -6.90868
0.0672                -0.0196345        -6.93965
0.0675                -0.0197142        -6.97063
0.0678                -0.0197936        -7.00161
0.0681                -0.0198729        -7.03258
0.0684                -0.0199521        -7.06356
0.0687                -0.0200318        -7.09454
0.069                 -0.0201114        -7.12551
0.0693                -0.0201907        -7.15649
0.0696                -0.0202699        -7.18746
0.0699                 -0.020349        -7.21844
0.0702                -0.0204286        -7.24942
0.0705                -0.0205081        -7.28039
0.0708                -0.0205873        -7.31137
0.0711                -0.0206664        -7.34234
0.0714                -0.0207455        -7.37332
0.0717                -0.0208249        -7.40429
0.072                 -0.0209043        -7.43527
0.0723                -0.0209834        -7.46624
0.0726                -0.0210625        -7.49722
0.0729                -0.0211414        -7.52819
0.0732                -0.0212208        -7.55917
0.0735                -0.0213001        -7.59015
0.0738                -0.0213791        -7.62112
0.0741                -0.0214581         -7.6521
0.0744                 -0.021537        -7.68307
0.0747                -0.0216162        -7.71405
0.075                 -0.0216954        -7.74502
0.0753                -0.0217744          -7.776
0.0756                -0.0218532        -7.80697
0.0759                -0.0219321        -7.83794
0.0762                -0.0220112        -7.86892
0.0765                -0.0220903        -7.89989
0.0768                -0.0221692        -7.93087
0.0771                 -0.022248        -7.96184
0.0774                -0.0223267        -7.99281
0.0777                -0.0224058        -8.02379
0.078                 -0.0224848        -8.05476
0.0783                -0.0225636        -8.08574
0.0786                -0.0226423        -8.11671
0.0789                 -0.022721        -8.14768
0.0792                   -0.0228        -8.17866
0.0795                -0.0228789        -8.20963
0.0798                -0.0229576         -8.2406
0.0801                -0.0230363        -8.27158
0.0804                -0.0231148        -8.30255
0.0807                -0.0231938        -8.33352
0.081                 -0.0232726         -8.3645
0.0813                -0.0233513        -8.39547
0.0816                -0.0234298        -8.42644
0.0819                -0.0235083        -8.45741
0.0822                -0.0235871        -8.48839
0.0825                -0.0236659        -8.51936
0.0828                -0.0237445        -8.55033
0.0831                -0.0238229        -8.58131
0.0834                -0.0239014        -8.61228
0.0837                -0.0239801        -8.64325
0.084                 -0.0240588        -8.67422
0.0843                -0.0241373         -8.7052
0.0846                -0.0242157        -8.73617
0.0849                -0.0242941        -8.76714
0.0852                -0.0243727        -8.79811
0.0855                -0.0244514        -8.82908
0.0858                -0.0245298        -8.86006
0.0861                -0.0246081        -8.89103
0.0864                -0.0246864          -8.922
0.0867                 -0.024765        -8.95297
0.087                 -0.0248435        -8.98394
0.0873                -0.0249219        -9.01491
0.0876                -0.0250001        -9.04588
0.0879                -0.0250784        -9.07685
0.0882                -0.0251569        -9.10783
0.0885                -0.0252353         -9.1388
0.0888                -0.0253136        -9.16977
0.0891                -0.0253918        -9.20074
0.0894                  -0.02547        -9.23171
0.0897                -0.0255484        -9.26268
0.09                  -0.0256268        -9.29365
0.0903                 -0.025705        -9.32462
0.0906                -0.0257831        -9.35559
0.0909                -0.0258612        -9.38656
0.0912                -0.0259396        -9.41753
0.0915                -0.0260179         -9.4485
0.0918                -0.0260961        -9.47947
0.0921                -0.0261741        -9.51044
0.0924                -0.0262522        -9.54141
0.0927                -0.0263304        -9.57238
0.093                 -0.0264087        -9.60335
0.0933                -0.0264868        -9.63432
0.0936                -0.0265648        -9.66529
0.0939                -0.0266427        -9.69626
0.0942                 -0.026721        -9.72723
0.0945                -0.0267991         -9.7582
0.0948                -0.0268772        -9.78917
0.0951                -0.0269551        -9.82013
0.0954                 -0.027033         -9.8511
0.0957                -0.0271111        -9.88207
0.096                 -0.0271893        -9.91304
0.0963                -0.0272672        -9.94401
0.0966                -0.0273451        -9.97498
0.0969                -0.0274229        -10.0059
0.0972                 -0.027501        -10.0369
0.0975                 -0.027579        -10.0679
0.0978                -0.0276569        -10.0988
0.0981                -0.0277347        -10.1298
0.0984                -0.0278125        -10.1608
0.0987                -0.0278905        -10.1918
0.099                 -0.0279685        -10.2227
0.0993                -0.0280464        -10.2537
0.0996                -0.0281241        -10.2847
0.0999                -0.0282018        -10.3156
0.1002                -0.0282798        -10.3466
0.1005                -0.0283577        -10.3776
0.1008                -0.0284355        -10.4085
0.1011                -0.0285131        -10.4395
0.1014                -0.0285908        -10.4705
0.1017                -0.0286687        -10.5014
0.102                 -0.0287465        -10.5324
0.1023                -0.0288243        -10.5634
0.1026                -0.0289019        -10.5943
0.1029                -0.0289795        -10.6253
0.1032                -0.0290573        -10.6563
0.1035                -0.0291351        -10.6872
0.1038                -0.0292128        -10.7182
0.1041                -0.0292903        -10.7492
0.1044                -0.0293679        -10.7801
0.1047                -0.0294456        -10.8111
0.105                 -0.0295234        -10.8421
0.1053                 -0.029601         -10.873
0.1056                -0.0296785         -10.904
0.1059                 -0.029756        -10.9349
0.1062                -0.0298337        -10.9659
0.1065                -0.0299113        -10.9969
0.1068                -0.0299889        -11.0278
0.1071                -0.0300663        -11.0588
0.1074                -0.0301437        -11.0898
0.1077                -0.0302214        -11.1207
0.108                  -0.030299        -11.1517
0.1083                -0.0303765        -11.1827
0.1086                -0.0304539        -11.2136
0.1089                -0.0305313        -11.2446
0.1092                -0.0306088        -11.2756
0.1095                -0.0306864        -11.3065
0.1098                -0.0307638        -11.3375
0.1101                -0.0308411        -11.3684
0.1104                -0.0309185        -11.3994
0.1107                 -0.030996        -11.4304
0.111                 -0.0310735        -11.4613
0.1113                -0.0311509        -11.4923
0.1116                -0.0312281        -11.5233
0.1119                -0.0313054        -11.5542
0.1122                -0.0313829        -11.5852
0.1125                -0.0314603        -11.6162
0.1128                -0.0315376        -11.6471
0.1131                -0.0316149        -11.6781
0.1134                -0.0316921         -11.709
0.1137                -0.0317695          -11.74
0.114                 -0.0318469         -11.771
0.1143                -0.0319241        -11.8019
0.1146                -0.0320013        -11.8329
0.1149                -0.0320785        -11.8638
0.1152                -0.0321558        -11.8948
0.1155                -0.0322331        -11.9258
0.1158                -0.0323104        -11.9567
0.1161                -0.0323875        -11.9877
0.1164                -0.0324646        -12.0187
0.1167                -0.0325419        -12.0496
0.117                 -0.0326192        -12.0806
0.1173                -0.0326963        -12.1115
0.1176                -0.0327734        -12.1425
0.1179                -0.0328504        -12.1735
0.1182                -0.0329277        -12.2044
0.1185                -0.0330049        -12.2354
0.1188                 -0.033082        -12.2663
0.1191                 -0.033159        -12.2973
0.1194                 -0.033236        -12.3283
0.1197                -0.0333132        -12.3592
0.12                  -0.0333904        -12.3902
0.1203                -0.0334674        -12.4211
0.1206                -0.0335444        -12.4521
0.1209                -0.0336214        -12.4831
0.1212                -0.0336985         -12.514
0.1215                -0.0337756         -12.545
0.1218                -0.0338526        -12.5759
0.1221                -0.0339295        -12.6069
0.1224                -0.0340064        -12.6378
0.1227                -0.0340835        -12.6688
0.123                 -0.0341606        -12.6998
0.1233                -0.0342375        -12.7307
0.1236                -0.0343144        -12.7617
0.1239                -0.0343912        -12.7926
0.1242                -0.0344683        -12.8236
0.1245                -0.0345453        -12.8546
0.1248                -0.0346222        -12.8855
0.1251                 -0.034699        -12.9165
0.1254                -0.0347758        -12.9474
0.1257                -0.0348528        -12.9784
0.126                 -0.0349297        -13.0093
0.1263                -0.0350066        -13.0403
0.1266                -0.0350833        -13.0713
0.1269                -0.0351601        -13.1022
0.1272                 -0.035237        -13.1332
0.1275                -0.0353139        -13.1641
0.1278                -0.0353907        -13.1951
0.1281                -0.0354675         -13.226
0.1284                -0.0355442         -13.257
0.1287                 -0.035621         -13.288
0.129                 -0.0356979        -13.3189
0.1293                -0.0357746        -13.3499
0.1296                -0.0358513        -13.3808
0.1299                 -0.035928        -13.4118
0.1302                -0.0360048        -13.4427
0.1305                -0.0360816        -13.4737
0.1308                -0.0361583        -13.5046
0.1311                -0.0362349        -13.5356
0.1314                -0.0363115        -13.5665
0.1317                -0.0363883        -13.5975
0.132                 -0.0364651        -13.6285
0.1323                -0.0365417        -13.6594
0.1326                -0.0366183        -13.6904
0.1329                -0.0366949        -13.7213
0.1332                -0.0367716        -13.7523
0.1335                -0.0368483        -13.7832
0.1338                -0.0369249        -13.8142
0.1341                -0.0370014        -13.8451
0.1344                -0.0370779        -13.8761
0.1347                -0.0371546         -13.907
0.135                 -0.0372313         -13.938
0.1353                -0.0373078        -13.9689
0.1356                -0.0373843        -13.9999
0.1359                -0.0374608        -14.0309
0.1362                -0.0375374        -14.0618
0.1365                 -0.037614        -14.0928
0.1368                -0.0376905        -14.1237
0.1371                 -0.037767        -14.1547
0.1374                -0.0378434        -14.1856
0.1377                  -0.03792        -14.2166
0.138                 -0.0379965        -14.2475
0.1383                 -0.038073        -14.2785
0.1386                -0.0381494        -14.3094
0.1389                -0.0382258        -14.3404
0.1392                -0.0383023        -14.3713
0.1395                -0.0383788        -14.4023
0.1398                -0.0384552        -14.4332
0.1401                -0.0385316        -14.4642
0.1404                -0.0386079        -14.4951
0.1407                -0.0386844        -14.5261
0.141                 -0.0387608         -14.557
0.1413                -0.0388372         -14.588
0.1416                -0.0389135        -14.6189
0.1419                -0.0389898        -14.6499
0.1422                -0.0390662        -14.6808
0.1425                -0.0391426        -14.7118
0.1428                 -0.039219        -14.7427
0.1431                -0.0392952        -14.7737
0.1434                -0.0393715        -14.8046
0.1437                -0.0394479        -14.8356
0.144                 -0.0395242        -14.8665
0.1443                -0.0396005        -14.8975
0.1446                -0.0396767        -14.9284
0.1449                -0.0397529        -14.9594
0.1452                -0.0398292        -14.9903
0.1455                -0.0399056        -15.0213
0.1458                -0.0399818        -15.0522
0.1461                 -0.040058        -15.0832
0.1464                -0.0401341        -15.1141
0.1467                -0.0402104         -15.145
0.147                 -0.0402867         -15.176
0.1473                -0.0403629        -15.2069
0.1476                 -0.040439        -15.2379
0.1479                -0.0405151        -15.2688
0.1482                -0.0405914        -15.2998
0.1485                -0.0406676        -15.3307
0.1488                -0.0407437        -15.3617
0.1491                -0.0408198        -15.3926
0.1494                -0.0408959        -15.4236
0.1497                -0.0409721        -15.4545
0.15                  -0.0410482        -15.4855
0.1503                -0.0411243        -15.5164
0.1506                -0.0412004        -15.5474
0.1509                -0.0412764        -15.5783
0.1512                -0.0413526        -15.6092
0.1515                -0.0414287        -15.6402
0.1518                -0.0415047        -15.6711
0.1521                -0.0415807        -15.7021
0.1524                -0.0416567         -15.733
0.1527                -0.0417328         -15.764
0.153                 -0.0418089        -15.7949
0.1533                -0.0418849        -15.8259
0.1536                -0.0419609        -15.8568
0.1539                -0.0420368        -15.8877
0.1542                -0.0421129        -15.9187
0.1545                -0.0421889        -15.9496
0.1548                -0.0422649        -15.9806
0.1551                -0.0423408        -16.0115
0.1554                -0.0424167        -16.0425
0.1557                -0.0424927        -16.0734
0.156                 -0.0425687        -16.1043
0.1563                -0.0426446        -16.1353
0.1566                -0.0427205        -16.1662
0.1569                -0.0427963        -16.1972
0.1572                -0.0428723        -16.2281
0.1575                -0.0429483         -16.259
0.1578                -0.0430241          -16.29
0.1581                   -0.0431        -16.3209
0.1584                -0.0431758        -16.3519
0.1587                -0.0432517        -16.3828
0.159                 -0.0433276        -16.4138
0.1593                -0.0434034        -16.4447
0.1596                -0.0434792        -16.4756
0.1599                 -0.043555        -16.5066
0.1602                -0.0436309        -16.5375
0.1605                -0.0437067        -16.5685
0.1608                -0.0437825        -16.5994
0.1611                -0.0438583        -16.6303
0.1614                 -0.043934        -16.6613
0.1617                -0.0440098        -16.6922
0.162                 -0.0440856        -16.7232
0.1623                -0.0441614        -16.7541
0.1626                -0.0442371         -16.785
0.1629                -0.0443128         -16.816
0.1632                -0.0443886        -16.8469
0.1635                -0.0444643        -16.8778
0.1638                  -0.04454        -16.9088
0.1641                -0.0446157        -16.9397
0.1644                -0.0446913        -16.9707
0.1647                -0.0447671        -17.0016
0.165                 -0.0448428        -17.0325
0.1653                -0.0449185        -17.0635
0.1656                -0.0449941        -17.0944
0.1659                -0.0450697        -17.1253
0.1662                -0.0451454        -17.1563
0.1665                -0.0452211        -17.1872
0.1668                -0.0452967        -17.2182
0.1671                -0.0453723        -17.2491
0.1674                -0.0454478          -17.28
0.1677                -0.0455235         -17.311
0.168                 -0.0455991        -17.3419
0.1683                -0.0456747        -17.3728
0.1686                -0.0457502        -17.4038
0.1689                -0.0458257        -17.4347
0.1692                -0.0459013        -17.4656
0.1695                -0.0459769        -17.4966
0.1698                -0.0460525        -17.5275
0.1701                 -0.046128        -17.5584
0.1704                -0.0462034        -17.5894
0.1707                 -0.046279        -17.6203
0.171                 -0.0463546        -17.6512
0.1713                -0.0464301        -17.6822
0.1716                -0.0465055        -17.7131
0.1719                -0.0465809         -17.744
0.1722                -0.0466565         -17.775
0.1725                 -0.046732        -17.8059
0.1728                -0.0468074        -17.8368
0.1731                -0.0468828        -17.8678
0.1734                -0.0469582        -17.8987
0.1737                -0.0470337        -17.9296
0.174                 -0.0471092        -17.9606
0.1743                -0.0471846        -17.9915
0.1746                  -0.04726        -18.0224
0.1749                -0.0473353        -18.0534
0.1752                -0.0474108        -18.0843
0.1755                -0.0474862        -18.1152
0.1758                -0.0475615        -18.1462
0.1761                -0.0476369        -18.1771
0.1764                -0.0477122         -18.208
0.1767                -0.0477876         -18.239
0.177                  -0.047863        -18.2699
0.1773                -0.0479383        -18.3008
0.1776                -0.0480136        -18.3317
0.1779                -0.0480888        -18.3627
0.1782                -0.0481642        -18.3936
0.1785                -0.0482395        -18.4245
0.1788                -0.0483148        -18.4555
0.1791                -0.0483901        -18.4864