! TOUCHSTONE file generated by CST MICROWAVE STUDIO
! Date and time: Sun Oct 12 18:06:30 2025
! Project name: calkit_sim.cst
! Parameters = {Rgap=0.9; ceq=6.5e-14; cu_t=0.035; dut_x=83.3333; k=7.07; leq=1.1e-09; line_gap=0.9; line_w=2.5; match_x=66.6667; open_x=16.6667; pad_g=1; pad_x=1.45; pad_z=0.9; ref_1=23.3333; ref_2=16.6667; res_h=0.32; res_len=1; res_w=0.5; short_x=33.3333; sus_l=100; sus_t=1.6; sus_w=40; thru_x=50; vias_r=1}
! Header version: 2015
! Port assignment regex: !\s*Touchstone port\s*([0-9]+)\s*=\s*CST MWS port\s*([0-9]+)\s*\(\"(.*)\"\)(\s*mode\s*([0-9]+))?.*
! Touchstone port assignment:
! Touchstone port 1 = CST MWS port 1 ("")
# GHz S DB R 50
0                   -3.39945e-08             180
0.0003               -0.00032222         179.968
0.0006              -0.000423961         179.938
0.0009              -0.000469921         179.908
0.0012              -0.000533731         179.879
0.0015              -0.000628951         179.849
0.0018              -0.000718599          179.82
0.0021              -0.000820323         179.791
0.0024              -0.000928557         179.762
0.0027              -0.000958254         179.733
0.003               -0.000983619         179.704
0.0033               -0.00104819         179.675
0.0036                -0.0011171         179.646
0.0039               -0.00118709         179.617
0.0042               -0.00122244         179.588
0.0045               -0.00125701          179.56
0.0048               -0.00130935         179.531
0.0051               -0.00136385         179.502
0.0054               -0.00141854         179.473
0.0057               -0.00145313         179.444
0.006                -0.00148769         179.416
0.0063               -0.00153294         179.387
0.0066               -0.00157956         179.358
0.0069               -0.00162613         179.329
0.0072               -0.00165911         179.301
0.0075               -0.00169223         179.272
0.0078               -0.00173274         179.243
0.0081               -0.00177421         179.215
0.0084               -0.00181558         179.186
0.0087               -0.00184694         179.157
0.009                -0.00187847         179.129
0.0093               -0.00191552           179.1
0.0096               -0.00195334         179.071
0.0099               -0.00199104         179.043
0.0102               -0.00202097         179.014
0.0105               -0.00205105         178.985
0.0108               -0.00208545         178.957
0.0111               -0.00212045         178.928
0.0114               -0.00215534         178.899
0.0117               -0.00218397         178.871
0.012                -0.00221276         178.842
0.0123               -0.00224504         178.813
0.0126               -0.00227781         178.785
0.0129               -0.00231047         178.756
0.0132               -0.00233794         178.728
0.0135               -0.00236558         178.699
0.0138               -0.00239612          178.67
0.0141               -0.00242709         178.642
0.0144               -0.00245795         178.613
0.0147               -0.00248442         178.585
0.015                -0.00251103         178.556
0.0153               -0.00254011         178.528
0.0156               -0.00256956         178.499
0.0159               -0.00259891          178.47
0.0162               -0.00262448         178.442
0.0165               -0.00265018         178.413
0.0168                 -0.002678         178.385
0.0171               -0.00270615         178.356
0.0174               -0.00273421         178.328
0.0177               -0.00275898         178.299
0.018                -0.00278386         178.271
0.0183                -0.0028106         178.242
0.0186               -0.00283762         178.213
0.0189               -0.00286457         178.185
0.0192                -0.0028886         178.156
0.0195               -0.00291275         178.128
0.0198               -0.00293852         178.099
0.0201               -0.00296457         178.071
0.0204               -0.00299053         178.042
0.0207                -0.0030139         178.014
0.021                -0.00303738         177.985
0.0213                -0.0030623         177.957
0.0216               -0.00308747         177.928
0.0219               -0.00311257         177.899
0.0222               -0.00313534         177.871
0.0225                -0.0031582         177.842
0.0228               -0.00318236         177.814
0.0231               -0.00320675         177.785
0.0234               -0.00323107         177.757
0.0237               -0.00325329         177.728
0.024                -0.00327559           177.7
0.0243               -0.00329906         177.671
0.0246               -0.00332275         177.643
0.0249               -0.00334637         177.614
0.0252               -0.00336807         177.586
0.0255               -0.00338986         177.557
0.0258               -0.00341271         177.529
0.0261               -0.00343575           177.5
0.0264               -0.00345874         177.472
0.0267               -0.00347997         177.443
0.027                -0.00350128         177.415
0.0273               -0.00352355         177.386
0.0276               -0.00354602         177.358
0.0279               -0.00356843         177.329
0.0282               -0.00358922         177.301
0.0285               -0.00361008         177.272
0.0288               -0.00363183         177.244
0.0291               -0.00365376         177.215
0.0294               -0.00367564         177.187
0.0297               -0.00369602         177.158
0.03                 -0.00371647          177.13
0.0303               -0.00373774         177.101
0.0306               -0.00375917         177.073
0.0309               -0.00378056         177.044
0.0312               -0.00380056         177.016
0.0315               -0.00382062         176.987
0.0318               -0.00384144         176.959
0.0321               -0.00386242          176.93
0.0324               -0.00388335         176.902
0.0327               -0.00390299         176.873
0.033                -0.00392269         176.845
0.0333               -0.00394309         176.816
0.0336               -0.00396365         176.788
0.0339               -0.00398416          176.76
0.0342               -0.00400346         176.731
0.0345               -0.00402282         176.703
0.0348               -0.00404283         176.674
0.0351               -0.00406299         176.646
0.0354               -0.00408311         176.617
0.0357               -0.00410209         176.589
0.036                -0.00412113          176.56
0.0363               -0.00414078         176.532
0.0366               -0.00416057         176.503
0.0369               -0.00418032         176.475
0.0372               -0.00419901         176.446
0.0375               -0.00421775         176.418
0.0378               -0.00423705         176.389
0.0381               -0.00425649         176.361
0.0384                -0.0042759         176.332
0.0387                -0.0042943         176.304
0.039                -0.00431275         176.276
0.0393               -0.00433173         176.247
0.0396               -0.00435085         176.219
0.0399               -0.00436993          176.19
0.0402               -0.00438806         176.162
0.0405               -0.00440624         176.133
0.0408               -0.00442492         176.105
0.0411               -0.00444373         176.076
0.0414                -0.0044625         176.048
0.0417               -0.00448038         176.019
0.042                 -0.0044983         175.991
0.0423                -0.0045167         175.962
0.0426               -0.00453521         175.934
0.0429                -0.0045537         175.906
0.0432               -0.00457133         175.877
0.0435               -0.00458901         175.849
0.0438               -0.00460713          175.82
0.0441               -0.00462537         175.792
0.0444               -0.00464358         175.763
0.0447               -0.00466099         175.735
0.045                -0.00467843         175.706
0.0453                -0.0046963         175.678
0.0456               -0.00471428         175.649
0.0459               -0.00473223         175.621
0.0462               -0.00474941         175.593
0.0465               -0.00476663         175.564
0.0468               -0.00478425         175.536
0.0471               -0.00480198         175.507
0.0474               -0.00481969         175.479
0.0477               -0.00483666          175.45
0.048                -0.00485367         175.422
0.0483               -0.00487106         175.393
0.0486               -0.00488855         175.365
0.0489               -0.00490602         175.337
0.0492               -0.00492279         175.308
0.0495               -0.00493959          175.28
0.0498               -0.00495676         175.251
0.0501               -0.00497403         175.223
0.0504               -0.00499127         175.194
0.0507               -0.00500785         175.166
0.051                -0.00502446         175.137
0.0513               -0.00504141         175.109
0.0516               -0.00505847         175.081
0.0519                -0.0050755         175.052
0.0522               -0.00509189         175.024
0.0525               -0.00510831         174.995
0.0528               -0.00512506         174.967
0.0531               -0.00514191         174.938
0.0534               -0.00515874          174.91
0.0537               -0.00517495         174.881
0.054                 -0.0051912         174.853
0.0543               -0.00520775         174.825
0.0546               -0.00522441         174.796
0.0549               -0.00524103         174.768
0.0552               -0.00525708         174.739
0.0555               -0.00527315         174.711
0.0558               -0.00528952         174.682
0.0561               -0.00530598         174.654
0.0564               -0.00532243         174.626
0.0567                -0.0053383         174.597
0.057                -0.00535421         174.569
0.0573                -0.0053704          174.54
0.0576               -0.00538669         174.512
0.0579               -0.00540295         174.483
0.0582               -0.00541867         174.455
0.0585               -0.00543441         174.427
0.0588               -0.00545044         174.398
0.0591               -0.00546654          174.37
0.0594               -0.00548263         174.341
0.0597                -0.0054982         174.313
0.06                 -0.00551379         174.284
0.0603               -0.00552965         174.256
0.0606               -0.00554559         174.228
0.0609               -0.00556151         174.199
0.0612               -0.00557694         174.171
0.0615               -0.00559238         174.142
0.0618               -0.00560808         174.114
0.0621               -0.00562386         174.085
0.0624               -0.00563962         174.057
0.0627                -0.0056549         174.029
0.063                 -0.0056702             174
0.0633               -0.00568575         173.972
0.0636               -0.00570137         173.943
0.0639               -0.00571698         173.915
0.0642               -0.00573212         173.886
0.0645               -0.00574729         173.858
0.0648               -0.00576269          173.83
0.0651               -0.00577816         173.801
0.0654               -0.00579362         173.773
0.0657               -0.00580863         173.744
0.066                -0.00582366         173.716
0.0663               -0.00583892         173.687
0.0666               -0.00585425         173.659
0.0669               -0.00586957         173.631
0.0672               -0.00588445         173.602
0.0675               -0.00589935         173.574
0.0678               -0.00591447         173.545
0.0681               -0.00592966         173.517
0.0684               -0.00594484         173.488
0.0687                -0.0059596          173.46
0.069                -0.00597438         173.432
0.0693               -0.00598936         173.403
0.0696               -0.00600442         173.375
0.0699               -0.00601947         173.346
0.0702               -0.00603411         173.318
0.0705               -0.00604876          173.29
0.0708               -0.00606362         173.261
0.0711               -0.00607855         173.233
0.0714               -0.00609346         173.204
0.0717               -0.00610799         173.176
0.072                -0.00612253         173.147
0.0723               -0.00613726         173.119
0.0726               -0.00615206         173.091
0.0729               -0.00616685         173.062
0.0732               -0.00618126         173.034
0.0735               -0.00619569         173.005
0.0738                -0.0062103         172.977
0.0741               -0.00622498         172.948
0.0744               -0.00623965          172.92
0.0747               -0.00625395         172.892
0.075                -0.00626827         172.863
0.0753               -0.00628277         172.835
0.0756               -0.00629733         172.806
0.0759               -0.00631188         172.778
0.0762               -0.00632608          172.75
0.0765               -0.00634029         172.721
0.0768               -0.00635467         172.693
0.0771               -0.00636912         172.664
0.0774               -0.00638356         172.636
0.0777               -0.00639765         172.608
0.078                -0.00641176         172.579
0.0783               -0.00642603         172.551
0.0786               -0.00644037         172.522
0.0789                -0.0064547         172.494
0.0792               -0.00646869         172.465
0.0795                -0.0064827         172.437
0.0798               -0.00649687         172.409
0.0801                -0.0065111          172.38
0.0804               -0.00652532         172.352
0.0807               -0.00653922         172.323
0.081                -0.00655312         172.295
0.0813               -0.00656719         172.267
0.0816               -0.00658132         172.238
0.0819               -0.00659544          172.21
0.0822               -0.00660924         172.181
0.0825               -0.00662305         172.153
0.0828               -0.00663701         172.124
0.0831               -0.00665104         172.096
0.0834               -0.00666506         172.068
0.0837               -0.00667877         172.039
0.084                -0.00669249         172.011
0.0843               -0.00670635         171.982
0.0846               -0.00672029         171.954
0.0849               -0.00673421         171.926
0.0852               -0.00674782         171.897
0.0855               -0.00676146         171.869
0.0858               -0.00677523          171.84
0.0861               -0.00678906         171.812
0.0864               -0.00680289         171.784
0.0867               -0.00681642         171.755
0.087                -0.00682996         171.727
0.0873               -0.00684364         171.698
0.0876               -0.00685739          171.67
0.0879               -0.00687112         171.641
0.0882               -0.00688456         171.613
0.0885               -0.00689802         171.585
0.0888               -0.00691161         171.556
0.0891               -0.00692527         171.528
0.0894               -0.00693891         171.499
0.0897               -0.00695227         171.471
0.09                 -0.00696565         171.443
0.0903               -0.00697915         171.414
0.0906               -0.00699272         171.386
0.0909               -0.00700628         171.357
0.0912               -0.00701956         171.329
0.0915               -0.00703285         171.301
0.0918               -0.00704627         171.272
0.0921               -0.00705975         171.244
0.0924               -0.00707322         171.215
0.0927               -0.00708643         171.187
0.093                -0.00709964         171.159
0.0933               -0.00711298          171.13
0.0936               -0.00712638         171.102
0.0939               -0.00713977         171.073
0.0942               -0.00715289         171.045
0.0945               -0.00716603         171.017
0.0948               -0.00717929         170.988
0.0951               -0.00719261          170.96
0.0954               -0.00720591         170.931
0.0957               -0.00721897         170.903
0.096                -0.00723203         170.874
0.0963               -0.00724521         170.846
0.0966               -0.00725845         170.818
0.0969               -0.00727168         170.789
0.0972               -0.00728466         170.761
0.0975               -0.00729765         170.732
0.0978               -0.00731075         170.704
0.0981               -0.00732391         170.676
0.0984               -0.00733706         170.647
0.0987               -0.00734997         170.619
0.099                -0.00736289          170.59
0.0993               -0.00737592         170.562
0.0996               -0.00738901         170.534
0.0999               -0.00740208         170.505
0.1002               -0.00741492         170.477
0.1005               -0.00742778         170.448
0.1008               -0.00744073          170.42
0.1011               -0.00745374         170.392
0.1014               -0.00746675         170.363
0.1017               -0.00747952         170.335
0.102                 -0.0074923         170.306
0.1023               -0.00750519         170.278
0.1026               -0.00751813          170.25
0.1029               -0.00753106         170.221
0.1032               -0.00754377         170.193
0.1035               -0.00755649         170.164
0.1038                -0.0075693         170.136
0.1041               -0.00758218         170.108
0.1044               -0.00759504         170.079
0.1047               -0.00760768         170.051
0.105                -0.00762034         170.022
0.1053               -0.00763308         169.994
0.1056               -0.00764589         169.966
0.1059               -0.00765869         169.937
0.1062               -0.00767126         169.909
0.1065               -0.00768386          169.88
0.1068               -0.00769654         169.852
0.1071               -0.00770928         169.823
0.1074               -0.00772201         169.795
0.1077               -0.00773452         169.767
0.108                -0.00774705         169.738
0.1083               -0.00775967          169.71
0.1086               -0.00777234         169.681
0.1089               -0.00778501         169.653
0.1092               -0.00779747         169.625
0.1095               -0.00780994         169.596
0.1098               -0.00782249         169.568
0.1101                -0.0078351         169.539
0.1104               -0.00784771         169.511
0.1107               -0.00786011         169.483
0.111                -0.00787252         169.454
0.1113               -0.00788501         169.426
0.1116               -0.00789756         169.397
0.1119                -0.0079101         169.369
0.1122               -0.00792244         169.341
0.1125                -0.0079348         169.312
0.1128               -0.00794723         169.284
0.1131               -0.00795972         169.255
0.1134                -0.0079722         169.227
0.1137               -0.00798449         169.199
0.114                -0.00799678          169.17
0.1143               -0.00800916         169.142
0.1146               -0.00802159         169.113
0.1149               -0.00803401         169.085
0.1152               -0.00804624         169.057
0.1155               -0.00805848         169.028
0.1158                -0.0080708             169
0.1161               -0.00808318         168.971
0.1164               -0.00809554         168.943
0.1167               -0.00810772         168.915
0.117                -0.00811991         168.886
0.1173               -0.00813217         168.858
0.1176               -0.00814449         168.829
0.1179                -0.0081568         168.801
0.1182               -0.00816892         168.773
0.1185               -0.00818106         168.744
0.1188               -0.00819327         168.716
0.1191               -0.00820553         168.687
0.1194               -0.00821778         168.659
0.1197               -0.00822986         168.631
0.12                 -0.00824194         168.602
0.1203                -0.0082541         168.574
0.1206                -0.0082663         168.545
0.1209                -0.0082785         168.517
0.1212               -0.00829053         168.489
0.1215               -0.00830256          168.46
0.1218               -0.00831467         168.432
0.1221               -0.00832682         168.403
0.1224               -0.00833897         168.375
0.1227               -0.00835094         168.347
0.123                -0.00836293         168.318
0.1233               -0.00837498          168.29
0.1236               -0.00838709         168.261
0.1239               -0.00839918         168.233
0.1242               -0.00841111         168.205
0.1245               -0.00842305         168.176
0.1248               -0.00843505         168.148
0.1251                -0.0084471         168.119
0.1254               -0.00845915         168.091
0.1257               -0.00847103         168.063
0.126                -0.00848292         168.034
0.1263               -0.00849488         168.006
0.1266               -0.00850688         167.977
0.1269               -0.00851888         167.949
0.1272               -0.00853071         167.921
0.1275               -0.00854256         167.892
0.1278               -0.00855446         167.864
0.1281               -0.00856642         167.835
0.1284               -0.00857837         167.807
0.1287               -0.00859016         167.779
0.129                -0.00860196          167.75
0.1293               -0.00861382         167.722
0.1296               -0.00862573         167.693
0.1299               -0.00863763         167.665
0.1302               -0.00864938         167.637
0.1305               -0.00866113         167.608
0.1308               -0.00867295          167.58
0.1311               -0.00868481         167.551
0.1314               -0.00869667         167.523
0.1317               -0.00870837         167.495
0.132                -0.00872008         167.466
0.1323               -0.00873185         167.438
0.1326               -0.00874367         167.409
0.1329               -0.00875548         167.381
0.1332               -0.00876714         167.352
0.1335               -0.00877881         167.324
0.1338               -0.00879054         167.296
0.1341               -0.00880231         167.267
0.1344               -0.00881408         167.239
0.1347                -0.0088257          167.21
0.135                -0.00883733         167.182
0.1353               -0.00884901         167.154
0.1356               -0.00886074         167.125
0.1359               -0.00887247         167.097
0.1362               -0.00888405         167.068
0.1365               -0.00889563          167.04
0.1368               -0.00890728         167.012
0.1371               -0.00891897         166.983
0.1374               -0.00893065         166.955
0.1377               -0.00894219         166.926
0.138                -0.00895374         166.898
0.1383               -0.00896534          166.87
0.1386               -0.00897699         166.841
0.1389               -0.00898863         166.813
0.1392               -0.00900013         166.784
0.1395               -0.00901164         166.756
0.1398                -0.0090232         166.728
0.1401               -0.00903481         166.699
0.1404               -0.00904641         166.671
0.1407               -0.00905787         166.642
0.141                -0.00906934         166.614
0.1413               -0.00908086         166.586
0.1416               -0.00909243         166.557
0.1419                 -0.009104         166.529
0.1422               -0.00911542           166.5
0.1425               -0.00912685         166.472
0.1428               -0.00913834         166.444
0.1431               -0.00914987         166.415
0.1434               -0.00916139         166.387
0.1437               -0.00917278         166.358
0.144                -0.00918418          166.33
0.1443               -0.00919562         166.302
0.1446               -0.00920712         166.273
0.1449                -0.0092186         166.245
0.1452               -0.00922996         166.216
0.1455               -0.00924132         166.188
0.1458               -0.00925273          166.16
0.1461               -0.00926418         166.131
0.1464               -0.00927563         166.103
0.1467               -0.00928695         166.074
0.147                -0.00929828         166.046
0.1473               -0.00930965         166.018
0.1476               -0.00932107         165.989
0.1479               -0.00933248         165.961
0.1482               -0.00934377         165.932
0.1485               -0.00935506         165.904
0.1488                -0.0093664         165.876
0.1491               -0.00937778         165.847
0.1494               -0.00938916         165.819
0.1497               -0.00940041          165.79
0.15                 -0.00941167         165.762
0.1503               -0.00942297         165.734
0.1506               -0.00943432         165.705
0.1509               -0.00944566         165.677
0.1512               -0.00945688         165.648
0.1515               -0.00946811          165.62
0.1518               -0.00947938         165.592
0.1521               -0.00949069         165.563
0.1524                 -0.009502         165.535
0.1527               -0.00951319         165.506
0.153                -0.00952438         165.478
0.1533               -0.00953562          165.45
0.1536                -0.0095469         165.421
0.1539               -0.00955818         165.393
0.1542               -0.00956933         165.364
0.1545               -0.00958049         165.336
0.1548                -0.0095917         165.308
0.1551               -0.00960295         165.279
0.1554               -0.00961419         165.251
0.1557               -0.00962531         165.222
0.156                -0.00963645         165.194
0.1563               -0.00964762         165.165
0.1566               -0.00965884         165.137
0.1569               -0.00967005         165.109
0.1572               -0.00968114          165.08
0.1575               -0.00969224         165.052
0.1578               -0.00970339         165.023
0.1581               -0.00971457         164.995
0.1584               -0.00972575         164.967
0.1587               -0.00973682         164.938
0.159                -0.00974789          164.91
0.1593                 -0.009759         164.881
0.1596               -0.00977015         164.853
0.1599               -0.00978131         164.825
0.1602               -0.00979234         164.796
0.1605               -0.00980338         164.768
0.1608               -0.00981447         164.739
0.1611               -0.00982559         164.711
0.1614               -0.00983671         164.683
0.1617               -0.00984772         164.654
0.162                -0.00985874         164.626
0.1623               -0.00986979         164.597
0.1626               -0.00988088         164.569
0.1629               -0.00989198         164.541
0.1632               -0.00990296         164.512
0.1635               -0.00991394         164.484
0.1638               -0.00992497         164.455
0.1641               -0.00993603         164.427
0.1644                -0.0099471         164.399
0.1647               -0.00995805          164.37
0.165                -0.00996901         164.342
0.1653               -0.00998001         164.313
0.1656               -0.00999105         164.285
0.1659                -0.0100021         164.257
0.1662                 -0.010013         164.228
0.1665                -0.0100239           164.2
0.1668                -0.0100349         164.171
0.1671                -0.0100459         164.143
0.1674                -0.0100569         164.114
0.1677                -0.0100678         164.086
0.168                 -0.0100787         164.058
0.1683                -0.0100897         164.029
0.1686                -0.0101007         164.001
0.1689                -0.0101116         163.972
0.1692                -0.0101225         163.944
0.1695                -0.0101334         163.916
0.1698                -0.0101443         163.887
0.1701                -0.0101553         163.859
0.1704                -0.0101662          163.83
0.1707                -0.0101771         163.802
0.171                 -0.0101879         163.774
0.1713                -0.0101988         163.745
0.1716                -0.0102098         163.717
0.1719                -0.0102207         163.688
0.1722                -0.0102315          163.66
0.1725                -0.0102424         163.632
0.1728                -0.0102532         163.603
0.1731                -0.0102641         163.575
0.1734                 -0.010275         163.546
0.1737                -0.0102858         163.518
0.174                 -0.0102966         163.489
0.1743                -0.0103075         163.461
0.1746                -0.0103184         163.433
0.1749                -0.0103293         163.404
0.1752                  -0.01034         163.376
0.1755                -0.0103508         163.347
0.1758                -0.0103616         163.319
0.1761                -0.0103725         163.291
0.1764                -0.0103834         163.262
0.1767                -0.0103941         163.234
0.177                 -0.0104049         163.205
0.1773                -0.0104157         163.177
0.1776                -0.0104265         163.149
0.1779                -0.0104373          163.12
0.1782                -0.0104481         163.092
0.1785                -0.0104588         163.063
0.1788                -0.0104696         163.035
0.1791                -0.0104804         163.007