! TOUCHSTONE file generated by CST MICROWAVE STUDIO
! Date and time: Sun Oct 12 17:45:38 2025
! Project name: calkit_sim.cst
! Parameters = {Rgap=0.9; ceq=6.5e-14; cu_t=0.035; dut_x=83.3333; k=7.07; leq=1.1e-09; line_gap=0.9; line_w=2.5; match_x=66.6667; open_x=16.6667; pad_g=1; pad_x=1.45; pad_z=0.9; ref_1=23.3333; ref_2=16.6667; res_h=0.32; res_len=1; res_w=0.5; short_x=33.3333; sus_l=100; sus_t=1.6; sus_w=40; thru_x=50; vias_r=1}
! Header version: 2015
! Port assignment regex: !\s*Touchstone port\s*([0-9]+)\s*=\s*CST MWS port\s*([0-9]+)\s*\(\"(.*)\"\)(\s*mode\s*([0-9]+))?.*
! Touchstone port assignment:
! Touchstone port 1 = CST MWS port 1 ("")
! Touchstone port 2 = CST MWS port 2 ("")
# GHz S DB R 50
0                       -49.1592             180       -0.0315807    -3.67393e-19       -0.0315807    -3.67393e-19         -48.8951     1.37366e-14
0.0003                  -111.175         151.857     -0.000743804      -0.0384651     -0.000743804      -0.0384651          -105.73         14.5383
0.0006                  -113.607        -80.8069     -0.000617691      -0.0701652     -0.000617691      -0.0701652         -111.214         -48.603
0.0009                  -92.9026        -113.829     -0.000597091       -0.102715     -0.000597091       -0.102715         -92.5603        -61.7583
0.0012                  -86.8449        -118.745     -0.000603706       -0.135532     -0.000603706       -0.135532         -86.6581        -59.3646
0.0015                  -83.6032        -118.231     -0.000621136       -0.168475     -0.000621136       -0.168475         -83.4889        -60.7318
0.0018                  -80.9856        -114.951     -0.000648335       -0.201496     -0.000648335       -0.201496          -80.922        -64.5607
0.0021                  -78.9595        -111.707      -0.00067999       -0.234564      -0.00067999       -0.234564         -78.9249        -68.1893
0.0024                  -77.2978          -108.9      -0.00071515       -0.267665      -0.00071515       -0.267665         -77.2797        -71.2855
0.0027                   -75.331        -107.064      -0.00076059       -0.300804      -0.00076059       -0.300804         -75.3222        -73.3451
0.003                   -73.7868        -106.669      -0.00080826       -0.333955      -0.00080826       -0.333955         -73.7817        -73.8831
0.0033                  -72.7664        -106.592     -0.000853852       -0.367106     -0.000853852       -0.367106         -72.7628        -74.0609
0.0036                  -71.8784        -106.389     -0.000900344       -0.400265     -0.000900344       -0.400265         -71.8762        -74.3586
0.0039                  -71.0827         -106.13     -0.000947821       -0.433431     -0.000947821       -0.433431         -71.0815        -74.7089
0.0042                  -70.2025        -106.288      -0.00099899       -0.466609      -0.00099899       -0.466609         -70.2022        -74.6371
0.0045                   -69.409         -106.38      -0.00105089       -0.499793      -0.00105089       -0.499793         -69.4094        -74.6282
0.0048                  -68.7541         -106.21      -0.00110199       -0.532976      -0.00110199       -0.532976         -68.7551        -74.8788
0.0051                  -68.1519        -106.001      -0.00115348       -0.566162      -0.00115348       -0.566162         -68.1534        -75.1673
0.0054                  -67.5905        -105.789      -0.00120546        -0.59935      -0.00120546        -0.59935         -67.5925        -75.4585
0.0057                  -67.0025        -105.796      -0.00125938       -0.632545      -0.00125938       -0.632545         -67.0049        -75.5284
0.006                   -66.4577        -105.794      -0.00131368       -0.665741      -0.00131368       -0.665741         -66.4605        -75.6056
0.0063                  -65.9782        -105.677      -0.00136754       -0.698935      -0.00136754       -0.698935         -65.9813         -75.797
0.0066                  -65.5267        -105.541      -0.00142163       -0.732131      -0.00142163       -0.732131           -65.53        -76.0074
0.0069                  -65.0979        -105.404      -0.00147604       -0.765327      -0.00147604       -0.765327         -65.1015        -76.2178
0.0072                  -64.6582        -105.389      -0.00153169       -0.798527      -0.00153169       -0.798527         -64.6621        -76.3059
0.0075                  -64.2438         -105.37      -0.00158758       -0.831727      -0.00158758       -0.831727         -64.2479         -76.397
0.0078                  -63.8664        -105.287       -0.0016432       -0.864926       -0.0016432       -0.864926         -63.8706        -76.5519
0.0081                   -63.506        -105.192      -0.00169898       -0.898125      -0.00169898       -0.898125         -63.5104        -76.7183
0.0084                  -63.1598        -105.097      -0.00175499       -0.931324      -0.00175499       -0.931324         -63.1644        -76.8846
0.0087                  -62.8081        -105.077      -0.00181189       -0.964525      -0.00181189       -0.964525         -62.8128        -76.9765
0.009                   -62.4721        -105.053      -0.00186896       -0.997726      -0.00186896       -0.997726          -62.477        -77.0711
0.0093                  -62.1609        -104.991      -0.00192584        -1.03093      -0.00192584        -1.03093         -62.1658        -77.2034
0.0096                  -61.8634        -104.926      -0.00198285        -1.06412      -0.00198285        -1.06412         -61.8685        -77.3388
0.0099                  -61.5767        -104.862      -0.00204004        -1.09732      -0.00204004        -1.09732         -61.5818        -77.4724
0.0102                  -61.2866        -104.847       -0.0020979        -1.13052       -0.0020979        -1.13052         -61.2919        -77.5572
0.0105                  -61.0056        -104.827       -0.0021559        -1.16372       -0.0021559        -1.16372          -61.011         -77.647
0.0108                  -60.7401        -104.778      -0.00221376        -1.19692      -0.00221376        -1.19692         -60.7455         -77.765
0.0111                  -60.4844        -104.728      -0.00227173        -1.23012      -0.00227173        -1.23012         -60.4899        -77.8852
0.0114                  -60.2367        -104.679      -0.00232984        -1.26331      -0.00232984        -1.26331         -60.2422        -78.0036
0.0117                  -59.9877        -104.665      -0.00238849        -1.29651      -0.00238849        -1.29651         -59.9933        -78.0865
0.012                   -59.7462        -104.649      -0.00244725        -1.32971      -0.00244725        -1.32971         -59.7519        -78.1715
0.0123                  -59.5156        -104.612      -0.00250591        -1.36291      -0.00250591        -1.36291         -59.5214        -78.2768
0.0126                  -59.2913        -104.573      -0.00256466         -1.3961      -0.00256466         -1.3961         -59.2972        -78.3856
0.0129                  -59.0726        -104.534      -0.00262353         -1.4293      -0.00262353         -1.4293         -59.0785        -78.4938
0.0132                  -58.8535        -104.521      -0.00268284        -1.46249      -0.00268284        -1.46249         -58.8595        -78.5754
0.0135                  -58.6411        -104.508      -0.00274224        -1.49569      -0.00274224        -1.49569         -58.6471        -78.6569
0.0138                  -58.4378        -104.481      -0.00280157        -1.52888      -0.00280157        -1.52888         -58.4438         -78.752
0.0141                  -58.2394        -104.452      -0.00286097        -1.56207      -0.00286097        -1.56207         -58.2455        -78.8497
0.0144                  -58.0453        -104.423      -0.00292047        -1.59527      -0.00292047        -1.59527         -58.0515        -78.9469
0.0147                  -57.8511        -104.415      -0.00298034        -1.62846      -0.00298034        -1.62846         -57.8573        -79.0241
0.015                   -57.6618        -104.405      -0.00304029        -1.66165      -0.00304029        -1.66165         -57.6681        -79.1015
0.0153                  -57.4795        -104.385      -0.00310018        -1.69484      -0.00310018        -1.69484         -57.4858        -79.1896
0.0156                  -57.3011        -104.364      -0.00316013        -1.72803      -0.00316013        -1.72803         -57.3074        -79.2796
0.0159                  -57.1263        -104.342      -0.00322017        -1.76122      -0.00322017        -1.76122         -57.1326        -79.3692
0.0162                  -56.9514        -104.337      -0.00328053        -1.79441      -0.00328053        -1.79441         -56.9578        -79.4431
0.0165                  -56.7806         -104.33      -0.00334095         -1.8276      -0.00334095         -1.8276          -56.787        -79.5171
0.0168                  -56.6153        -104.316      -0.00340132        -1.86078      -0.00340132        -1.86078         -56.6218        -79.5995
0.0171                  -56.4533          -104.3      -0.00346175        -1.89397      -0.00346175        -1.89397         -56.4598        -79.6834
0.0174                  -56.2942        -104.285      -0.00352225        -1.92715      -0.00352225        -1.92715         -56.3007        -79.7669
0.0177                  -56.1352        -104.282      -0.00358303        -1.96034      -0.00358303        -1.96034         -56.1417        -79.8378
0.018                   -55.9795        -104.279      -0.00364387        -1.99353      -0.00364387        -1.99353         -55.9861        -79.9087
0.0183                  -55.8284        -104.269      -0.00370466        -2.02671      -0.00370466        -2.02671         -55.8349        -79.9863
0.0186                  -55.6799        -104.258      -0.00376549        -2.05989      -0.00376549        -2.05989         -55.6865        -80.0652
0.0189                  -55.5339        -104.247       -0.0038264        -2.09307       -0.0038264        -2.09307         -55.5405        -80.1437
0.0192                  -55.3881        -104.247      -0.00388754        -2.12626      -0.00388754        -2.12626         -55.3947        -80.2118
0.0195                  -55.2451        -104.246      -0.00394874        -2.15944      -0.00394874        -2.15944         -55.2517          -80.28
0.0198                  -55.1058         -104.24      -0.00400989        -2.19262      -0.00400989        -2.19262         -55.1125        -80.3536
0.0201                  -54.9688        -104.233      -0.00407109         -2.2258      -0.00407109         -2.2258         -54.9755        -80.4282
0.0204                  -54.8339        -104.227      -0.00413234        -2.25898      -0.00413234        -2.25898         -54.8406        -80.5025
0.0207                  -54.6992        -104.228       -0.0041938        -2.29215       -0.0041938        -2.29215          -54.706        -80.5682
0.021                   -54.5669         -104.23      -0.00425531        -2.32533      -0.00425531        -2.32533         -54.5737        -80.6339
0.0213                  -54.4378        -104.228      -0.00431678        -2.35851      -0.00431678        -2.35851         -54.4446        -80.7041
0.0216                  -54.3107        -104.224      -0.00437829        -2.39168      -0.00437829        -2.39168         -54.3175        -80.7751
0.0219                  -54.1853        -104.221      -0.00443984        -2.42486      -0.00443984        -2.42486         -54.1921        -80.8458
0.0222                  -54.0602        -104.225      -0.00450158        -2.45803      -0.00450158        -2.45803          -54.067        -80.9092
0.0225                  -53.9371        -104.229      -0.00456336        -2.49121      -0.00456336        -2.49121         -53.9439        -80.9727
0.0228                  -53.8167        -104.229      -0.00462511        -2.52438      -0.00462511        -2.52438         -53.8236        -81.0399
0.0231                  -53.6981        -104.228      -0.00468688        -2.55755      -0.00468688        -2.55755         -53.7049        -81.1078
0.0234                  -53.5809        -104.228       -0.0047487        -2.59073       -0.0047487        -2.59073         -53.5878        -81.1754
0.0237                  -53.4641        -104.234      -0.00481068         -2.6239      -0.00481068         -2.6239          -53.471        -81.2368
0.024                    -53.349         -104.24       -0.0048727        -2.65707       -0.0048727        -2.65707         -53.3559        -81.2983
0.0243                  -53.2363        -104.243      -0.00493468        -2.69024      -0.00493468        -2.69024         -53.2432        -81.3628
0.0246                  -53.1251        -104.245      -0.00499669        -2.72341      -0.00499669        -2.72341          -53.132         -81.428
0.0249                  -53.0152        -104.247      -0.00505873        -2.75657      -0.00505873        -2.75657         -53.0221        -81.4929
0.0252                  -52.9056        -104.255      -0.00512093        -2.78974      -0.00512093        -2.78974         -52.9125        -81.5525
0.0255                  -52.7975        -104.263      -0.00518314        -2.82291      -0.00518314        -2.82291         -52.8045        -81.6121
0.0258                  -52.6915        -104.267      -0.00524533        -2.85607      -0.00524533        -2.85607         -52.6985        -81.6743
0.0261                  -52.5868        -104.272      -0.00530754        -2.88924      -0.00530754        -2.88924         -52.5938        -81.7371
0.0264                  -52.4833        -104.277      -0.00536978         -2.9224      -0.00536978         -2.9224         -52.4903        -81.7996
0.0267                  -52.3801        -104.286      -0.00543215        -2.95557      -0.00543215        -2.95557         -52.3871        -81.8576
0.027                   -52.2783        -104.295      -0.00549455        -2.98873      -0.00549455        -2.98873         -52.2852        -81.9155
0.0273                  -52.1782        -104.302      -0.00555691        -3.02189      -0.00555691        -3.02189         -52.1852        -81.9757
0.0276                  -52.0793        -104.308      -0.00561929        -3.05506      -0.00561929        -3.05506         -52.0863        -82.0363
0.0279                  -51.9815        -104.315      -0.00568169        -3.08822      -0.00568169        -3.08822         -51.9885        -82.0967
0.0282                  -51.8839        -104.326      -0.00574422        -3.12138      -0.00574422        -3.12138          -51.891        -82.1532
0.0285                  -51.7876        -104.337      -0.00580676        -3.15454      -0.00580676        -3.15454         -51.7947        -82.2095
0.0288                  -51.6929        -104.345      -0.00586927         -3.1877      -0.00586927         -3.1877         -51.6999        -82.2679
0.0291                  -51.5992        -104.354      -0.00593179        -3.22086      -0.00593179        -3.22086         -51.6062        -82.3266
0.0294                  -51.5065        -104.362      -0.00599434        -3.25401      -0.00599434        -3.25401         -51.5135        -82.3851
0.0297                   -51.414        -104.374      -0.00605699        -3.28717      -0.00605699        -3.28717          -51.421        -82.4401
0.03                    -51.3226        -104.386      -0.00611966        -3.32033      -0.00611966        -3.32033         -51.3297        -82.4951
0.0303                  -51.2327        -104.397      -0.00618229        -3.35348      -0.00618229        -3.35348         -51.2397        -82.5518
0.0306                  -51.1437        -104.407      -0.00624493        -3.38664      -0.00624493        -3.38664         -51.1507        -82.6088
0.0309                  -51.0555        -104.417      -0.00630759        -3.41979      -0.00630759        -3.41979         -51.0626        -82.6657
0.0312                  -50.9676         -104.43      -0.00637035        -3.45295      -0.00637035        -3.45295         -50.9747        -82.7194
0.0315                  -50.8807        -104.443      -0.00643312         -3.4861      -0.00643312         -3.4861         -50.8878         -82.773
0.0318                  -50.7951        -104.455      -0.00649586        -3.51925      -0.00649586        -3.51925         -50.8021        -82.8282
0.0321                  -50.7103        -104.466       -0.0065586         -3.5524       -0.0065586         -3.5524         -50.7174        -82.8837
0.0324                  -50.6263        -104.478      -0.00662135        -3.58555      -0.00662135        -3.58555         -50.6334         -82.939
0.0327                  -50.5425        -104.493       -0.0066842        -3.61871       -0.0066842        -3.61871         -50.5496        -82.9915
0.033                   -50.4597        -104.507      -0.00674704        -3.65186      -0.00674704        -3.65186         -50.4668        -83.0439
0.0333                  -50.3779         -104.52      -0.00680986          -3.685      -0.00680986          -3.685          -50.385        -83.0977
0.0336                   -50.297        -104.533      -0.00687268        -3.71815      -0.00687268        -3.71815         -50.3041        -83.1518
0.0339                  -50.2168        -104.546      -0.00693551         -3.7513      -0.00693551         -3.7513         -50.2239        -83.2057
0.0342                  -50.1368        -104.561      -0.00699842        -3.78445      -0.00699842        -3.78445         -50.1439        -83.2571
0.0345                  -50.0576        -104.577      -0.00706133        -3.81759      -0.00706133        -3.81759         -50.0647        -83.3085
0.0348                  -49.9794        -104.591      -0.00712421        -3.85074      -0.00712421        -3.85074         -49.9865         -83.361
0.0351                   -49.902        -104.605      -0.00718709        -3.88389      -0.00718709        -3.88389         -49.9091        -83.4138
0.0354                  -49.8252        -104.619      -0.00724998        -3.91703      -0.00724998        -3.91703         -49.8323        -83.4664
0.0357                  -49.7486        -104.636      -0.00731293        -3.95017      -0.00731293        -3.95017         -49.7557        -83.5169
0.036                   -49.6727        -104.652      -0.00737589        -3.98332      -0.00737589        -3.98332         -49.6799        -83.5672
0.0363                  -49.5978        -104.668      -0.00743881        -4.01646      -0.00743881        -4.01646          -49.605        -83.6186
0.0366                  -49.5237        -104.683      -0.00750173         -4.0496      -0.00750173         -4.0496         -49.5308        -83.6702
0.0369                  -49.4502        -104.698      -0.00756466        -4.08274      -0.00756466        -4.08274         -49.4573        -83.7215
0.0372                  -49.3768        -104.716      -0.00762765        -4.11588      -0.00762765        -4.11588          -49.384        -83.7708
0.0375                  -49.3041        -104.733      -0.00769063        -4.14903      -0.00769063        -4.14903         -49.3113        -83.8202
0.0378                  -49.2322         -104.75      -0.00775359        -4.18216      -0.00775359        -4.18216         -49.2394        -83.8705
0.0381                  -49.1609        -104.766      -0.00781653         -4.2153      -0.00781653         -4.2153         -49.1681        -83.9211
0.0384                  -49.0902        -104.782      -0.00787948        -4.24844      -0.00787948        -4.24844         -49.0973        -83.9715
0.0387                  -49.0197          -104.8      -0.00794249        -4.28158      -0.00794249        -4.28158         -49.0268        -84.0201
0.039                   -48.9498        -104.819      -0.00800549        -4.31472      -0.00800549        -4.31472         -48.9569        -84.0686
0.0393                  -48.8807        -104.836      -0.00806846        -4.34785      -0.00806846        -4.34785         -48.8878        -84.1179
0.0396                  -48.8121        -104.853      -0.00813142        -4.38099      -0.00813142        -4.38099         -48.8193        -84.1674
0.0399                  -48.7441         -104.87      -0.00819438        -4.41413      -0.00819438        -4.41413         -48.7513        -84.2168
0.0402                  -48.6763        -104.889      -0.00825739        -4.44726      -0.00825739        -4.44726         -48.6835        -84.2645
0.0405                  -48.6091        -104.909      -0.00832039         -4.4804      -0.00832039         -4.4804         -48.6162        -84.3122
0.0408                  -48.5425        -104.927      -0.00838336        -4.51353      -0.00838336        -4.51353         -48.5497        -84.3606
0.0411                  -48.4765        -104.945      -0.00844632        -4.54666      -0.00844632        -4.54666         -48.4837        -84.4092
0.0414                   -48.411        -104.963      -0.00850927        -4.57979      -0.00850927        -4.57979         -48.4182        -84.4576
0.0417                  -48.3457        -104.983      -0.00857227        -4.61293      -0.00857227        -4.61293         -48.3528        -84.5045
0.042                   -48.2809        -105.003      -0.00863527        -4.64606      -0.00863527        -4.64606          -48.288        -84.5514
0.0423                  -48.2167        -105.022      -0.00869822        -4.67919      -0.00869822        -4.67919         -48.2239         -84.599
0.0426                  -48.1531        -105.041      -0.00876117        -4.71232      -0.00876117        -4.71232         -48.1602        -84.6467
0.0429                  -48.0899         -105.06      -0.00882411        -4.74545      -0.00882411        -4.74545          -48.097        -84.6943
0.0432                  -48.0268         -105.08      -0.00888709        -4.77858      -0.00888709        -4.77858          -48.034        -84.7405
0.0435                  -47.9643        -105.101      -0.00895006        -4.81171      -0.00895006        -4.81171         -47.9715        -84.7867
0.0438                  -47.9024         -105.12      -0.00901299        -4.84483      -0.00901299        -4.84483         -47.9095        -84.8335
0.0441                  -47.8409         -105.14      -0.00907591        -4.87796      -0.00907591        -4.87796         -47.8481        -84.8804
0.0444                  -47.7798         -105.16      -0.00913882        -4.91109      -0.00913882        -4.91109          -47.787        -84.9272
0.0447                  -47.7189        -105.181      -0.00920177        -4.94421      -0.00920177        -4.94421         -47.7261        -84.9728
0.045                   -47.6585        -105.202      -0.00926471        -4.97734      -0.00926471        -4.97734         -47.6656        -85.0183
0.0453                  -47.5986        -105.223      -0.00932761        -5.01047      -0.00932761        -5.01047         -47.6058        -85.0643
0.0456                  -47.5392        -105.243       -0.0093905        -5.04359       -0.0093905        -5.04359         -47.5464        -85.1105
0.0459                  -47.4802        -105.264      -0.00945337        -5.07671      -0.00945337        -5.07671         -47.4874        -85.1565
0.0462                  -47.4214        -105.285      -0.00951628        -5.10984      -0.00951628        -5.10984         -47.4286        -85.2013
0.0465                   -47.363        -105.307      -0.00957917        -5.14296      -0.00957917        -5.14296         -47.3702        -85.2461
0.0468                  -47.3051        -105.328      -0.00964203        -5.17608      -0.00964203        -5.17608         -47.3122        -85.2915
0.0471                  -47.2475        -105.349      -0.00970487        -5.20921      -0.00970487        -5.20921         -47.2547         -85.337
0.0474                  -47.1904        -105.371       -0.0097677        -5.24233       -0.0097677        -5.24233         -47.1975        -85.3824
0.0477                  -47.1333        -105.393      -0.00983056        -5.27545      -0.00983056        -5.27545         -47.1405        -85.4267
0.048                   -47.0768        -105.415       -0.0098934        -5.30857       -0.0098934        -5.30857         -47.0839         -85.471
0.0483                  -47.0207        -105.437       -0.0099562        -5.34169       -0.0099562        -5.34169         -47.0278        -85.5157
0.0486                  -46.9649        -105.459        -0.010019        -5.37481        -0.010019        -5.37481         -46.9721        -85.5605
0.0489                  -46.9096        -105.481       -0.0100818        -5.40793       -0.0100818        -5.40793         -46.9167        -85.6052
0.0492                  -46.8543        -105.503       -0.0101446        -5.44105       -0.0101446        -5.44105         -46.8615        -85.6489
0.0495                  -46.7995        -105.526       -0.0102073        -5.47416       -0.0102073        -5.47416         -46.8066        -85.6926
0.0498                  -46.7451        -105.549       -0.0102701        -5.50728       -0.0102701        -5.50728         -46.7523        -85.7367
0.0501                   -46.691        -105.571       -0.0103328         -5.5404       -0.0103328         -5.5404         -46.6982        -85.7809
0.0504                  -46.6373        -105.593       -0.0103955        -5.57351       -0.0103955        -5.57351         -46.6445        -85.8251
0.0507                  -46.5838        -105.617       -0.0104583        -5.60663       -0.0104583        -5.60663         -46.5909        -85.8682
0.051                   -46.5305         -105.64        -0.010521        -5.63975        -0.010521        -5.63975         -46.5377        -85.9114
0.0513                  -46.4778        -105.663       -0.0105836        -5.67286       -0.0105836        -5.67286         -46.4849        -85.9549
0.0516                  -46.4253        -105.686       -0.0106463        -5.70598       -0.0106463        -5.70598         -46.4325        -85.9986
0.0519                  -46.3732        -105.709       -0.0107089        -5.73909       -0.0107089        -5.73909         -46.3803        -86.0421
0.0522                  -46.3211        -105.733       -0.0107716         -5.7722       -0.0107716         -5.7722         -46.3283        -86.0848
0.0525                  -46.2695        -105.756       -0.0108342        -5.80532       -0.0108342        -5.80532         -46.2766        -86.1274
0.0528                  -46.2182         -105.78       -0.0108968        -5.83843       -0.0108968        -5.83843         -46.2254        -86.1705
0.0531                  -46.1673        -105.803       -0.0109594        -5.87154       -0.0109594        -5.87154         -46.1744        -86.2136
0.0534                  -46.1166        -105.827        -0.011022        -5.90465        -0.011022        -5.90465         -46.1237        -86.2566
0.0537                   -46.066        -105.851       -0.0110846        -5.93776       -0.0110846        -5.93776         -46.0732        -86.2988
0.054                   -46.0158        -105.875       -0.0111471        -5.97087       -0.0111471        -5.97087          -46.023        -86.3409
0.0543                   -45.966        -105.899       -0.0112096        -6.00398       -0.0112096        -6.00398         -45.9732        -86.3834
0.0546                  -45.9165        -105.923       -0.0112721        -6.03709       -0.0112721        -6.03709         -45.9236         -86.426
0.0549                  -45.8672        -105.947       -0.0113346         -6.0702       -0.0113346         -6.0702         -45.8743        -86.4686
0.0552                   -45.818        -105.972       -0.0113971        -6.10331       -0.0113971        -6.10331         -45.8252        -86.5103
0.0555                  -45.7692        -105.996       -0.0114596        -6.13642       -0.0114596        -6.13642         -45.7763         -86.552
0.0558                  -45.7207        -106.021        -0.011522        -6.16953        -0.011522        -6.16953         -45.7279        -86.5941
0.0561                  -45.6725        -106.045       -0.0115844        -6.20264       -0.0115844        -6.20264         -45.6797        -86.6362
0.0564                  -45.6246         -106.07       -0.0116468        -6.23574       -0.0116468        -6.23574         -45.6317        -86.6782
0.0567                  -45.5767        -106.095       -0.0117092        -6.26885       -0.0117092        -6.26885         -45.5839        -86.7195
0.057                   -45.5292         -106.12       -0.0117716        -6.30195       -0.0117716        -6.30195         -45.5363        -86.7608
0.0573                   -45.482        -106.145       -0.0118339        -6.33506       -0.0118339        -6.33506         -45.4891        -86.8024
0.0576                  -45.4351        -106.169       -0.0118962        -6.36817       -0.0118962        -6.36817         -45.4422        -86.8441
0.0579                  -45.3884        -106.194       -0.0119585        -6.40127       -0.0119585        -6.40127         -45.3955        -86.8857
0.0582                  -45.3418         -106.22       -0.0120208        -6.43437       -0.0120208        -6.43437         -45.3489        -86.9266
0.0585                  -45.2955        -106.245       -0.0120831        -6.46748       -0.0120831        -6.46748         -45.3026        -86.9675
0.0588                  -45.2495         -106.27       -0.0121454        -6.50058       -0.0121454        -6.50058         -45.2567        -87.0086